 Q-Chem 6.2, Q-Chem, Inc., Pleasanton, CA (2024)
 Q-Chem 6.2.0 for Intel X86 EM64T Linux

User input:
--------------------------------------------------------------
$molecule
0 1
S    0.00000    -0.62786   -0.73337
H    0.00000    -0.20070   0.52934
O    0.00000    0.26034    2.49637
H    -0.77319   -0.10988   2.92861
H    0.77319    -0.10988   2.92861
C    0.00000    1.02810    -1.48917
H    0.00000    0.88114    -2.56443
H    -0.89329   1.56501    -1.18564
H    0.89329    1.56501    -1.18564
$end

$rem
JOBTYPE  OPT
METHOD  WB97X-V
BASIS  DEF2-SVPD
SYMMETRY  FALSE
SYM_IGNORE  FALSE
MEM_TOTAL  8000
MEM_STATIC  2000
BASIS_LIN_DEP_THRESH  6
THRESH  14
SCF_CONVERGENCE  8
FD_MAT_VEC_PROD  FALSE
XC_GRID  000099000590
NL_GRID  1
MAX_SCF_CYCLES  200
GEOM_OPT_MAX_CYCLES  200
GEOM_OPT_DRIVER  OPTIMIZE
GEOM_OPT_TOL_GRADIENT  100
GEOM_OPT_TOL_DISPLACEMENT  100
GEOM_OPT_TOL_ENERGY  10
$end

--------------------------------------------------------------

   12    -514.8303516092      4.54e-09  Convergence criterion met
 Total energy =  -514.83035161
   10    -514.8315027897      6.00e-09  Convergence criterion met
 Total energy =  -514.83150279
    9    -514.8317051463      6.73e-09  Convergence criterion met
 Total energy =  -514.83170515
    9    -514.8318694765      6.28e-09  Convergence criterion met
 Total energy =  -514.83186948
    9    -514.8319324142      6.56e-09  Convergence criterion met
 Total energy =  -514.83193241
    9    -514.8319572915      6.29e-09  Convergence criterion met
 Total energy =  -514.83195729
    8    -514.8319596807      9.91e-09  Convergence criterion met
 Total energy =  -514.83195968
    8    -514.8319607028      5.73e-09  Convergence criterion met
    8    -514.8321711444      9.72e-09  Convergence criterion met
 Total energy =  -514.83217114
    9    -514.8321725062      1.95e-09  Convergence criterion met
 Total energy =  -514.83217251
    9    -514.8321751867      6.77e-09  Convergence criterion met
 Total energy =  -514.83217519
    9    -514.8321753976      4.47e-09  Convergence criterion met
 Total energy =  -514.83217540
    9    -514.8321759927      2.42e-09  Convergence criterion met
 Total energy =  -514.83217599
    8    -514.8321760037      2.74e-09  Convergence criterion met
 Total energy =  -514.83217600
 Final energy is   -514.832176003706
 **  OPTIMIZATION CONVERGED  **
 Total job time:  470.19s(wall), 7500.30s(cpu)
        *  Thank you very much for using Q-Chem.  Have a nice day.  *
 Q-Chem 6.2, Q-Chem, Inc., Pleasanton, CA (2024)
 Q-Chem 6.2.0 for Intel X86 EM64T Linux

User input:
--------------------------------------------------------------

$molecule
read
$end

$rem
JOBTYPE  FREQ
METHOD  WB97X-V
BASIS  DEF2-SVPD
SYMMETRY  FALSE
SYM_IGNORE  FALSE
MEM_TOTAL  8000
MEM_STATIC  2000
BASIS_LIN_DEP_THRESH  6
THRESH  14
SCF_CONVERGENCE  8
FD_MAT_VEC_PROD  FALSE
XC_GRID  000099000590
NL_GRID  1
MAX_SCF_CYCLES  200
GEOM_OPT_MAX_CYCLES  200
GEOM_OPT_DRIVER  OPTIMIZE
GEOM_OPT_TOL_GRADIENT  100
GEOM_OPT_TOL_DISPLACEMENT  100
GEOM_OPT_TOL_ENERGY  10
SCF_GUESS  READ
$end
--------------------------------------------------------------

             Standard Nuclear Orientation (Angstroms)
    I     Atom           X                Y                Z
 ----------------------------------------------------------------
    1      S       1.1194381157     0.9243432069     0.0000000000
    2      H      -0.2286643731     0.9317093328     0.0000000000
    3      O      -2.1748212350    -0.3539209401     0.0000000000
    4      H      -2.7570932988    -0.3674335376     0.7667351559
    5      H      -2.7570932988    -0.3674335376    -0.7667351559
    6      C       1.3099584751    -0.8812652113     0.0000000000
    7      H       2.3884748770    -1.0906234693     0.0000000000
    8      H       0.8626774621    -1.3295558408     0.8972046590
    9      H       0.8626774621    -1.3295558408    -0.8972046590
 ----------------------------------------------------------------

    2    -514.8321760084      1.37e-10  Convergence criterion met
 Total energy =  -514.83217601

                    Orbital Energies (a.u.)
 --------------------------------------------------------------

 Alpha MOs
 -- Occupied --
-88.8317 -19.2525 -10.3024  -8.0266  -5.9890  -5.9849  -5.9782  -1.1481
 -0.8943  -0.7485  -0.6660  -0.5517  -0.5246  -0.5175  -0.4803  -0.4487
 -0.4159  -0.3234

          Ground-State Mulliken Net Atomic Charges

     Atom                 Charge (a.u.)
  ----------------------------------------
      1 S                    -0.401816
      2 H                     0.242137
      3 O                    -0.294437
      4 H                     0.158969
      5 H                     0.158969
      6 C                     0.133687
      7 H                    -0.013599
      8 H                     0.008045
      9 H                     0.008045
  ----------------------------------------
  Sum of atomic charges =     0.000000

                    Cartesian Multipole Moments
 -----------------------------------------------------------------
    Charge (ESU x 10^10)
                 0.0000
    Dipole Moment (Debye)
         X      -3.0840      Y      -1.6620      Z       0.0000
       Tot       3.5034
    Quadrupole Moments (Debye-Ang)
        XX     -18.4042     XY      -2.2743     YY     -29.6268
        XZ      -0.0000     YZ       0.0000     ZZ     -27.5108

 Frequency:       -38.73                  40.86                  66.20
 Force Cnst:      0.0009                 0.0031                 0.0028
 Red. Mass:       1.0234                 3.1807                 1.0748
 IR Intens:       16.604                  1.178                 28.189
 Frequency:       106.53                 119.93                 122.01
 Force Cnst:      0.0485                 0.0088                 0.0101
 Red. Mass:       7.2570                 1.0429                 1.1461
 IR Intens:        9.404                  1.740                216.949
 Frequency:       355.00                 748.87                 819.32
 Force Cnst:      0.0771                 1.1629                 0.4655
 Red. Mass:       1.0387                 3.5195                 1.1769
 IR Intens:       30.446                  2.784                  3.959
 Frequency:       971.19                1101.88                1347.54
 Force Cnst:      0.6602                 0.8790                 1.2506
 Red. Mass:       1.1880                 1.2288                 1.1689
 IR Intens:        4.477                  4.438                  2.684
 Frequency:      1447.27                1458.13                1593.53
 Force Cnst:      1.2930                 1.3092                 1.6207
 Red. Mass:       1.0478                 1.0451                 1.0832
 IR Intens:        5.916                 10.092                 81.177
 Frequency:      2752.26                3075.18                3179.01
 Force Cnst:      4.6324                 5.7494                 6.5857
 Red. Mass:       1.0379                 1.0319                 1.1060
 IR Intens:       28.223                 21.949                  6.165
 Frequency:      3183.18                3869.20                3976.58
 Force Cnst:      6.6202                 9.2172                10.0887
 Red. Mass:       1.1089                 1.0450                 1.0828
 IR Intens:        4.934                 16.956                 87.237

 STANDARD THERMODYNAMIC QUANTITIES AT   298.15 K  AND     1.00 ATM

   This Molecule has  1 Imaginary Frequencies
   Zero point vibrational energy:       43.364 kcal/mol

   Atom    1 Element S  Has Mass   31.97207
   Atom    2 Element H  Has Mass    1.00783
   Atom    3 Element O  Has Mass   15.99491
   Atom    4 Element H  Has Mass    1.00783
   Atom    5 Element H  Has Mass    1.00783
   Atom    6 Element C  Has Mass   12.00000
   Atom    7 Element H  Has Mass    1.00783
   Atom    8 Element H  Has Mass    1.00783
   Atom    9 Element H  Has Mass    1.00783
   Molecular Mass:    66.013960 amu
   Principal axes and moments of inertia in amu*Bohr^2:
                             1           2           3
    Eigenvalues --      143.23406   586.04059   709.22291
          X              -0.97629    -0.21648     0.00000
          Y              -0.21648     0.97629     0.00000
          Z              -0.00000     0.00000     1.00000
   Rotational Symmetry Number is   1
   The Molecule is an Asymmetric Top
   Translational Enthalpy:        0.889 kcal/mol
   Rotational Enthalpy:           0.889 kcal/mol
   Vibrational Enthalpy:         46.114 kcal/mol
   gas constant (RT):             0.592 kcal/mol
   Translational Entropy:        38.480  cal/mol.K
   Rotational Entropy:           25.590  cal/mol.K
   Vibrational Entropy:          20.796  cal/mol.K

   Total Enthalpy:               48.484 kcal/mol
   Total Entropy:                84.867  cal/mol.K

 Total job time:  234.48s(wall), 3735.82s(cpu)
        *  Thank you very much for using Q-Chem.  Have a nice day.  *
