 Q-Chem 6.2, Q-Chem, Inc., Pleasanton, CA (2024)
 Q-Chem 6.2.0 for Intel X86 EM64T Linux

User input:
--------------------------------------------------------------
$molecule
0 1
O    -1.52402   -0.56029   -0.02264
H    -0.72105   -0.62962   0.55777
O    0.73679    -1.37171   1.40921
H    0.20085    -1.60508   2.20850
H    1.08326    -2.23923   1.08059
C    -1.95717   0.77894    -0.00569
C    -3.20908   0.88643    -0.88827
H    -4.01263   0.22320    -0.50157
H    -3.59077   1.93037    -0.90712
H    -2.97567   0.57643    -1.92965
C    -2.31156   1.19697    1.43352
H    -3.10435   0.53522    1.84373
H    -1.41946   1.12070    2.09160
H    -2.67650   2.24657    1.45900
C    -0.85478   1.69261    -0.57201
H    -0.59415   1.38700    -1.60808
H    -1.19224   2.75152    -0.58803
H    0.06220    1.62813    0.05160
$end

$rem
JOBTYPE  OPT
METHOD  WB97X-V
BASIS  DEF2-SVPD
SYMMETRY  FALSE
SYM_IGNORE  TRUE
MEM_TOTAL  8000
MEM_STATIC  2000
BASIS_LIN_DEP_THRESH  6
THRESH  14
SCF_CONVERGENCE  8
FD_MAT_VEC_PROD  FALSE
XC_GRID  000099000590
NL_GRID  1
MAX_SCF_CYCLES  200
GEOM_OPT_MAX_CYCLES  200
GEOM_OPT_DRIVER  OPTIMIZE
GEOM_OPT_TOL_GRADIENT  100
GEOM_OPT_TOL_DISPLACEMENT  100
GEOM_OPT_TOL_ENERGY  10
$end

--------------------------------------------------------------

   13    -309.8087585521      3.10e-09  Convergence criterion met
 Total energy =  -309.80875855
   11    -309.8121911599      6.31e-09  Convergence criterion met
 Total energy =  -309.81219116
   11    -309.8128475349      4.23e-09  Convergence criterion met
 Total energy =  -309.81284753
   11    -309.8132801704      3.83e-09  Convergence criterion met
 Total energy =  -309.81328017
   11    -309.8135278234      3.13e-09  Convergence criterion met
 Total energy =  -309.81352782
   10    -309.8136288744      5.56e-09  Convergence criterion met
 Total energy =  -309.81362887
   11    -309.8137625541      2.26e-09  Convergence criterion met
 Total energy =  -309.81376255
   11    -309.8138830423      3.57e-09  Convergence criterion met
    7    -309.8140343808      6.39e-09  Convergence criterion met
 Total energy =  -309.81403438
    7    -309.8140345076      6.43e-09  Convergence criterion met
 Total energy =  -309.81403451
    7    -309.8140346097      5.40e-09  Convergence criterion met
 Total energy =  -309.81403461
    7    -309.8140347220      5.76e-09  Convergence criterion met
 Total energy =  -309.81403472
    7    -309.8140348431      5.65e-09  Convergence criterion met
 Total energy =  -309.81403484
    7    -309.8140349378      4.24e-09  Convergence criterion met
 Total energy =  -309.81403494
 Final energy is   -309.814034937779
 **  OPTIMIZATION CONVERGED  **
 Total job time:  3124.88s(wall), 46950.82s(cpu)
        *  Thank you very much for using Q-Chem.  Have a nice day.  *
 Q-Chem 6.2, Q-Chem, Inc., Pleasanton, CA (2024)
 Q-Chem 6.2.0 for Intel X86 EM64T Linux

User input:
--------------------------------------------------------------

$molecule
read
$end

$rem
JOBTYPE  FREQ
METHOD  WB97X-V
BASIS  DEF2-SVPD
SYMMETRY  FALSE
SYM_IGNORE  TRUE
MEM_TOTAL  8000
MEM_STATIC  2000
BASIS_LIN_DEP_THRESH  6
THRESH  14
SCF_CONVERGENCE  8
FD_MAT_VEC_PROD  FALSE
XC_GRID  000099000590
NL_GRID  1
MAX_SCF_CYCLES  200
GEOM_OPT_MAX_CYCLES  200
GEOM_OPT_DRIVER  OPTIMIZE
GEOM_OPT_TOL_GRADIENT  100
GEOM_OPT_TOL_DISPLACEMENT  100
GEOM_OPT_TOL_ENERGY  10
SCF_GUESS  READ
$end
--------------------------------------------------------------

             Standard Nuclear Orientation (Angstroms)
    I     Atom           X                Y                Z
 ----------------------------------------------------------------
    1      O      -1.7818735653    -0.6499731680    -0.0800466681
    2      H      -1.0082053083    -0.8531496998     0.4663527486
    3      O       0.6020049025    -1.1540322414     1.5349111557
    4      H       0.5033068146    -1.7855660924     2.2552734882
    5      H       1.3364242980    -1.4774672221     1.0021536281
    6      C      -2.0273043376     0.7545519602    -0.0166775518
    7      C      -3.2466017398     0.9994654777    -0.9040376474
    8      H      -4.1060860342     0.4236447895    -0.5303142477
    9      H      -3.5143546029     2.0671063030    -0.9178627380
   10      H      -3.0342833183     0.6741189236    -1.9331127854
   11      C      -2.3191166216     1.1592898375     1.4342292023
   12      H      -3.1781292460     0.5893550292     1.8185402710
   13      H      -1.4457098078     0.9494973803     2.0719495006
   14      H      -2.5471619347     2.2345699683     1.5092241541
   15      C      -0.8049995223     1.5134217336    -0.5498501256
   16      H      -0.5815850505     1.1914753173    -1.5778762276
   17      H      -0.9816446630     2.6007819648    -0.5514322449
   18      H       0.0749897371     1.3110697387     0.0810360876
 ----------------------------------------------------------------

    2    -309.8140349440      1.20e-09  Convergence criterion met
 Total energy =  -309.81403494

                    Orbital Energies (a.u.)
 --------------------------------------------------------------

 Alpha MOs
 -- Occupied --
-19.2648 -19.1970 -10.3260 -10.2635 -10.2631 -10.2599  -1.1610  -1.1177
 -0.8998  -0.8010  -0.8007  -0.6780  -0.6719  -0.5909  -0.5564  -0.5496
 -0.5340  -0.5070  -0.4934  -0.4767  -0.4583  -0.4578  -0.4454  -0.4393
 -0.4031  -0.3592

          Ground-State Mulliken Net Atomic Charges

     Atom                 Charge (a.u.)
  ----------------------------------------
      1 O                    -0.026749
      2 H                     0.157040
      3 O                    -0.306967
      4 H                     0.151185
      5 H                     0.168128
      6 C                    -4.062005
      7 C                     0.998523
      8 H                     0.091615
      9 H                     0.179220
     10 H                     0.089741
     11 C                     1.047172
     12 H                     0.058132
     13 H                    -0.024325
     14 H                     0.200062
     15 C                     1.054111
     16 H                     0.061494
     17 H                     0.199070
     18 H                    -0.035448
  ----------------------------------------
  Sum of atomic charges =     0.000000

                    Cartesian Multipole Moments
 -----------------------------------------------------------------
    Charge (ESU x 10^10)
                 0.0000
    Dipole Moment (Debye)
         X       2.5019      Y      -0.7659      Z       1.5414
       Tot       3.0367
    Quadrupole Moments (Debye-Ang)
        XX     -41.9631     XY      -6.1577     YY     -36.8571
        XZ       0.0381     YZ      -4.9893     ZZ     -38.0927

 Frequency:        33.54                  56.22                  81.58
 Force Cnst:      0.0016                 0.0060                 0.0045
 Red. Mass:       2.4555                 3.2336                 1.1576
 IR Intens:       11.573                 11.315                 32.533
 Frequency:       148.67                 170.58                 186.61
 Force Cnst:      0.0544                 0.0186                 0.0212
 Red. Mass:       4.1807                 1.0857                 1.0335
 IR Intens:        2.296                  0.729                  0.112
 Frequency:       219.20                 257.58                 265.73
 Force Cnst:      0.0359                 0.0407                 0.0438
 Red. Mass:       1.2698                 1.0416                 1.0539
 IR Intens:      218.192                  0.219                  1.012
 Frequency:       344.79                 350.04                 421.16
 Force Cnst:      0.1691                 0.1681                 0.2242
 Red. Mass:       2.4143                 2.3292                 2.1457
 IR Intens:        1.329                  0.766                  0.535
 Frequency:       473.16                 476.33                 643.04
 Force Cnst:      0.3683                 0.3472                 0.2555
 Red. Mass:       2.7925                 2.5974                 1.0487
 IR Intens:        3.235                  3.283                106.311
 Frequency:       774.55                 921.40                 935.73
 Force Cnst:      1.2341                 0.7796                 0.8009
 Red. Mass:       3.4916                 1.5587                 1.5525
 IR Intens:        2.268                  0.491                  0.937
 Frequency:       951.16                 966.44                1032.54
 Force Cnst:      0.6408                 1.2633                 0.8791
 Red. Mass:       1.2021                 2.2956                 1.3995
 IR Intens:        0.016                 26.230                  4.744
 Frequency:      1041.55                1208.56                1261.38
 Force Cnst:      0.9011                 1.3485                 2.8100
 Red. Mass:       1.4098                 1.5670                 2.9976
 IR Intens:        0.682                 49.655                 72.029
 Frequency:      1274.28                1373.48                1392.67
 Force Cnst:      2.2875                 1.3546                 1.6431
 Red. Mass:       2.3910                 1.2188                 1.4379
 IR Intens:       12.535                 15.322                 28.541
 Frequency:      1408.07                1425.62                1452.48
 Force Cnst:      1.5677                 1.7506                 1.3011
 Red. Mass:       1.3421                 1.4619                 1.0467
 IR Intens:       29.408                 29.361                  0.082
 Frequency:      1466.00                1468.30                1480.82
 Force Cnst:      1.3239                 1.3257                 1.3958
 Red. Mass:       1.0456                 1.0437                 1.0804
 IR Intens:        0.004                  0.102                  2.434
 Frequency:      1497.11                1504.87                1601.25
 Force Cnst:      1.5528                 1.4607                 1.6359
 Red. Mass:       1.1759                 1.0947                 1.0829
 IR Intens:        1.159                 11.270                 86.045
 Frequency:      3044.51                3047.79                3056.89
 Force Cnst:      5.6567                 5.6704                 5.7062
 Red. Mass:       1.0358                 1.0361                 1.0364
 IR Intens:       21.190                 18.223                 12.617
 Frequency:      3132.10                3137.93                3144.45
 Force Cnst:      6.3815                 6.4015                 6.4367
 Red. Mass:       1.1041                 1.1034                 1.1049
 IR Intens:        0.578                 44.241                  7.195
 Frequency:      3145.74                3152.26                3153.31
 Force Cnst:      6.4389                 6.4626                 6.4687
 Red. Mass:       1.1044                 1.1039                 1.1042
 IR Intens:        8.052                 48.129                 32.731
 Frequency:      3775.55                3866.53                3969.97
 Force Cnst:      8.9597                 9.2068                10.0536
 Red. Mass:       1.0668                 1.0452                 1.0827
 IR Intens:      360.994                 12.154                 95.220

 STANDARD THERMODYNAMIC QUANTITIES AT   298.15 K  AND     1.00 ATM

   This Molecule has  0 Imaginary Frequencies
   Zero point vibrational energy:      100.347 kcal/mol

   Atom    1 Element O  Has Mass   15.99491
   Atom    2 Element H  Has Mass    1.00783
   Atom    3 Element O  Has Mass   15.99491
   Atom    4 Element H  Has Mass    1.00783
   Atom    5 Element H  Has Mass    1.00783
   Atom    6 Element C  Has Mass   12.00000
   Atom    7 Element C  Has Mass   12.00000
   Atom    8 Element H  Has Mass    1.00783
   Atom    9 Element H  Has Mass    1.00783
   Atom   10 Element H  Has Mass    1.00783
   Atom   11 Element C  Has Mass   12.00000
   Atom   12 Element H  Has Mass    1.00783
   Atom   13 Element H  Has Mass    1.00783
   Atom   14 Element H  Has Mass    1.00783
   Atom   15 Element C  Has Mass   12.00000
   Atom   16 Element H  Has Mass    1.00783
   Atom   17 Element H  Has Mass    1.00783
   Atom   18 Element H  Has Mass    1.00783
   Molecular Mass:    92.083780 amu
   Principal axes and moments of inertia in amu*Bohr^2:
                             1           2           3
    Eigenvalues --      396.30669  1074.40906  1085.06478
          X               0.73441    -0.57325     0.36335
          Y              -0.52176    -0.13449     0.84242
          Z               0.43405     0.80827     0.39787
   Rotational Symmetry Number is   1
   The Molecule is an Asymmetric Top
   Translational Enthalpy:        0.889 kcal/mol
   Rotational Enthalpy:           0.889 kcal/mol
   Vibrational Enthalpy:        105.274 kcal/mol
   gas constant (RT):             0.592 kcal/mol
   Translational Entropy:        39.472  cal/mol.K
   Rotational Entropy:           27.626  cal/mol.K
   Vibrational Entropy:          32.888  cal/mol.K

   Total Enthalpy:              107.644 kcal/mol
   Total Entropy:                99.986  cal/mol.K

 Total job time:  2995.65s(wall), 36792.20s(cpu)
        *  Thank you very much for using Q-Chem.  Have a nice day.  *
