 Q-Chem 6.2, Q-Chem, Inc., Pleasanton, CA (2024)
 Q-Chem 6.2.0 for Intel X86 EM64T Linux

User input:
--------------------------------------------------------------
$molecule
0 1
S          1.07774        1.17696        0.00000
H         -0.27036        1.18433        0.00000
C          1.26826       -0.62865        0.00000
O         -2.21652       -0.10130        0.00000
H         -2.79879       -0.11482        0.76674
H         -2.79879       -0.11482       -0.76674
C          2.83894       -0.93354        0.00000
H          3.20985       -1.86471       -0.37451
H          3.49292       -0.40646       -0.66287
H          3.04218       -0.76786        1.03738
C          0.61660       -1.28179        1.30719
H          1.03396       -1.09052        2.27368
H         -0.34077       -0.95515        1.65598
H          0.64706       -2.31038        1.01399
C          0.61660       -1.28179       -1.30719
H         -0.01487       -2.14172       -1.22557
H         -0.15334       -0.76729       -1.84328
H          1.50846       -1.44704       -1.87479
$end

$rem
JOBTYPE  OPT
METHOD  WB97X-V
BASIS  DEF2-SVPD
SYMMETRY  FALSE
SYM_IGNORE  TRUE
MEM_TOTAL  8000
MEM_STATIC  2000
BASIS_LIN_DEP_THRESH  6
THRESH  14
SCF_CONVERGENCE  8
FD_MAT_VEC_PROD  FALSE
XC_GRID  000099000590
NL_GRID  1
MAX_SCF_CYCLES  200
GEOM_OPT_MAX_CYCLES  200
GEOM_OPT_DRIVER  OPTIMIZE
GEOM_OPT_TOL_GRADIENT  100
GEOM_OPT_TOL_DISPLACEMENT  100
GEOM_OPT_TOL_ENERGY  10
$end

--------------------------------------------------------------

   13    -632.6088896160      4.02e-09  Convergence criterion met
 Total energy =  -632.60888962
   11    -632.6420849975      8.94e-09  Convergence criterion met
 Total energy =  -632.64208500
   10    -632.6601008223      7.58e-09  Convergence criterion met
 Total energy =  -632.66010082
   11    -632.6667338479      5.09e-09  Convergence criterion met
 Total energy =  -632.66673385
   11    -632.6689129690      5.62e-09  Convergence criterion met
 Total energy =  -632.66891297
   11    -632.6704336313      4.12e-09  Convergence criterion met
 Total energy =  -632.67043363
   11    -632.6716795801      3.24e-09  Convergence criterion met
 Total energy =  -632.67167958
   10    -632.6727903760      7.67e-09  Convergence criterion met
    8    -632.6754857268      7.27e-09  Convergence criterion met
 Total energy =  -632.67548573
    7    -632.6754858807      5.71e-09  Convergence criterion met
 Total energy =  -632.67548588
    8    -632.6754861294      3.01e-09  Convergence criterion met
 Total energy =  -632.67548613
    8    -632.6754863303      3.47e-09  Convergence criterion met
 Total energy =  -632.67548633
    7    -632.6754864471      8.06e-09  Convergence criterion met
 Total energy =  -632.67548645
    7    -632.6754864885      4.21e-09  Convergence criterion met
 Total energy =  -632.67548649
 Final energy is   -632.675486488470
 **  OPTIMIZATION CONVERGED  **
 Total job time:  1132.96s(wall), 18047.43s(cpu)
        *  Thank you very much for using Q-Chem.  Have a nice day.  *
 Q-Chem 6.2, Q-Chem, Inc., Pleasanton, CA (2024)
 Q-Chem 6.2.0 for Intel X86 EM64T Linux

User input:
--------------------------------------------------------------

$molecule
read
$end

$rem
JOBTYPE  FREQ
METHOD  WB97X-V
BASIS  DEF2-SVPD
SYMMETRY  FALSE
SYM_IGNORE  TRUE
MEM_TOTAL  8000
MEM_STATIC  2000
BASIS_LIN_DEP_THRESH  6
THRESH  14
SCF_CONVERGENCE  8
FD_MAT_VEC_PROD  FALSE
XC_GRID  000099000590
NL_GRID  1
MAX_SCF_CYCLES  200
GEOM_OPT_MAX_CYCLES  200
GEOM_OPT_DRIVER  OPTIMIZE
GEOM_OPT_TOL_GRADIENT  100
GEOM_OPT_TOL_DISPLACEMENT  100
GEOM_OPT_TOL_ENERGY  10
SCF_GUESS  READ
$end
--------------------------------------------------------------

             Standard Nuclear Orientation (Angstroms)
    I     Atom           X                Y                Z
 ----------------------------------------------------------------
    1      S       1.0437494312     1.0704745146     0.0529051641
    2      H      -0.3045468801     1.0181475351     0.0232909206
    3      C       1.3178994838    -0.7559257346     0.0162323542
    4      O      -2.4610131036     0.0703393730    -0.0471074022
    5      H      -3.0067787030     0.3043815032     0.7105941773
    6      H      -2.9697198690     0.3352238541    -0.8203071964
    7      C       2.8387208583    -0.9488898488     0.0442147335
    8      H       3.0751920925    -2.0249547488     0.0249118871
    9      H       3.3143572255    -0.4756106700    -0.8283029172
   10      H       3.2764787867    -0.5161911267     0.9567290754
   11      C       0.6697677609    -1.3998324185     1.2465112037
   12      H       1.0780811091    -0.9714001022     2.1733951350
   13      H      -0.4187278296    -1.2425790029     1.2357225635
   14      H       0.8605630050    -2.4866396008     1.2472477610
   15      C       0.7235972625    -1.3413927964    -1.2691819303
   16      H       0.9153691166    -2.4271649244    -1.3121649323
   17      H      -0.3645117982    -1.1837036196    -1.2977388012
   18      H       1.1706520514    -0.8708321865    -2.1569417958
 ----------------------------------------------------------------

    2    -632.6754864962      6.51e-10  Convergence criterion met
 Total energy =  -632.67548650

                    Orbital Energies (a.u.)
 --------------------------------------------------------------

 Alpha MOs
 -- Occupied --
-88.8294 -19.2541 -10.3211 -10.2763 -10.2714 -10.2713  -8.0221  -5.9844
 -5.9805  -5.9740  -1.1503  -0.9560  -0.8188  -0.8083  -0.8048  -0.6680
 -0.6484  -0.5685  -0.5536  -0.5493  -0.5236  -0.5021  -0.4938  -0.4658
 -0.4647  -0.4436  -0.4363  -0.4283  -0.3963  -0.3226

          Ground-State Mulliken Net Atomic Charges

     Atom                 Charge (a.u.)
  ----------------------------------------
      1 S                    -0.228282
      2 H                     0.328003
      3 C                    -3.275818
      4 O                    -0.248848
      5 H                     0.122222
      6 H                     0.123444
      7 C                     0.878457
      8 H                     0.121938
      9 H                    -0.003584
     10 H                    -0.003760
     11 C                     1.094577
     12 H                     0.067226
     13 H                    -0.264789
     14 H                     0.196074
     15 C                     1.095008
     16 H                     0.196499
     17 H                    -0.265736
     18 H                     0.067368
  ----------------------------------------
  Sum of atomic charges =     0.000000

                    Cartesian Multipole Moments
 -----------------------------------------------------------------
    Charge (ESU x 10^10)
                -0.0000
    Dipole Moment (Debye)
         X      -2.8825      Y      -0.8760      Z      -0.0886
       Tot       3.0139
    Quadrupole Moments (Debye-Ang)
        XX     -38.0140     XY      -6.0804     YY     -50.2918
        XZ       0.0706     YZ      -0.1866     ZZ     -47.8459

 Frequency:        35.67                  57.60                  74.66
 Force Cnst:      0.0014                 0.0082                 0.0040
 Red. Mass:       1.9312                 4.1890                 1.2049
 IR Intens:       11.709                  1.430                 32.639
 Frequency:        96.47                 116.23                 199.00
 Force Cnst:      0.0337                 0.0092                 0.0275
 Red. Mass:       6.1502                 1.1509                 1.1797
 IR Intens:        0.750                  2.679                221.205
 Frequency:       216.03                 280.42                 291.63
 Force Cnst:      0.0280                 0.0484                 0.0754
 Red. Mass:       1.0188                 1.0441                 1.5050
 IR Intens:        0.809                  0.022                  0.190
 Frequency:       301.49                 305.40                 369.20
 Force Cnst:      0.0804                 0.1418                 0.0870
 Red. Mass:       1.5012                 2.5798                 1.0828
 IR Intens:        0.559                  0.044                 22.115
 Frequency:       375.59                 403.28                 408.92
 Force Cnst:      0.2444                 0.2177                 0.2272
 Red. Mass:       2.9411                 2.2719                 2.3065
 IR Intens:        0.259                  0.628                  2.082
 Frequency:       619.26                 857.34                 907.53
 Force Cnst:      0.8025                 1.0627                 0.5499
 Red. Mass:       3.5518                 2.4539                 1.1333
 IR Intens:        3.325                  0.581                  0.492
 Frequency:       948.17                 956.57                 965.23
 Force Cnst:      0.8028                 0.8242                 0.6600
 Red. Mass:       1.5156                 1.5289                 1.2023
 IR Intens:        0.381                  1.382                  0.000
 Frequency:      1047.37                1057.75                1209.81
 Force Cnst:      0.9134                 0.8898                 1.8666
 Red. Mass:       1.4133                 1.3498                 2.1646
 IR Intens:        0.427                  1.168                 38.126
 Frequency:      1261.51                1281.10                1395.82
 Force Cnst:      2.3817                 2.3669                 1.5527
 Red. Mass:       2.5401                 2.4477                 1.3527
 IR Intens:        0.809                  0.799                 16.988
 Frequency:      1396.05                1418.59                1456.98
 Force Cnst:      1.5680                 1.4836                 1.3069
 Red. Mass:       1.3655                 1.2512                 1.0449
 IR Intens:       12.850                  3.797                  0.035
 Frequency:      1465.66                1467.68                1484.57
 Force Cnst:      1.3205                 1.3243                 1.3880
 Red. Mass:       1.0433                 1.0434                 1.0689
 IR Intens:        0.020                  0.216                  6.633
 Frequency:      1484.69                1500.29                1607.84
 Force Cnst:      1.3824                 1.3971                 1.6488
 Red. Mass:       1.0644                 1.0535                 1.0825
 IR Intens:        7.881                  7.403                 90.634
 Frequency:      2737.01                3041.99                3044.25
 Force Cnst:      4.5815                 5.6586                 5.6620
 Red. Mass:       1.0380                 1.0379                 1.0370
 IR Intens:       24.038                 20.930                 20.763
 Frequency:      3048.90                3130.40                3132.82
 Force Cnst:      5.6808                 6.3559                 6.3725
 Red. Mass:       1.0372                 1.1009                 1.1020
 IR Intens:       30.767                  4.241                  8.080
 Frequency:      3138.07                3143.40                3154.53
 Force Cnst:      6.3961                 6.4312                 6.4798
 Red. Mass:       1.1024                 1.1047                 1.1052
 IR Intens:       45.024                 12.883                 10.198
 Frequency:      3157.01                3868.96                3973.75
 Force Cnst:      6.4873                 9.2184                10.0709
 Red. Mass:       1.1047                 1.0452                 1.0825
 IR Intens:       18.330                 20.546                 82.995

 STANDARD THERMODYNAMIC QUANTITIES AT   298.15 K  AND     1.00 ATM

   This Molecule has  0 Imaginary Frequencies
   Zero point vibrational energy:       97.057 kcal/mol

   Atom    1 Element S  Has Mass   31.97207
   Atom    2 Element H  Has Mass    1.00783
   Atom    3 Element C  Has Mass   12.00000
   Atom    4 Element O  Has Mass   15.99491
   Atom    5 Element H  Has Mass    1.00783
   Atom    6 Element H  Has Mass    1.00783
   Atom    7 Element C  Has Mass   12.00000
   Atom    8 Element H  Has Mass    1.00783
   Atom    9 Element H  Has Mass    1.00783
   Atom   10 Element H  Has Mass    1.00783
   Atom   11 Element C  Has Mass   12.00000
   Atom   12 Element H  Has Mass    1.00783
   Atom   13 Element H  Has Mass    1.00783
   Atom   14 Element H  Has Mass    1.00783
   Atom   15 Element C  Has Mass   12.00000
   Atom   16 Element H  Has Mass    1.00783
   Atom   17 Element H  Has Mass    1.00783
   Atom   18 Element H  Has Mass    1.00783
   Molecular Mass:   108.060940 amu
   Principal axes and moments of inertia in amu*Bohr^2:
                             1           2           3
    Eigenvalues --      587.75848  1202.49501  1384.58011
          X               0.97969    -0.19932    -0.02192
          Y              -0.19982    -0.97955    -0.02346
          Z               0.01679    -0.02736     0.99948
   Rotational Symmetry Number is   1
   The Molecule is an Asymmetric Top
   Translational Enthalpy:        0.889 kcal/mol
   Rotational Enthalpy:           0.889 kcal/mol
   Vibrational Enthalpy:        102.427 kcal/mol
   gas constant (RT):             0.592 kcal/mol
   Translational Entropy:        39.949  cal/mol.K
   Rotational Entropy:           28.372  cal/mol.K
   Vibrational Entropy:          36.128  cal/mol.K

   Total Enthalpy:              104.796 kcal/mol
   Total Entropy:               104.449  cal/mol.K

 Total job time:  2728.92s(wall), 43415.76s(cpu)
        *  Thank you very much for using Q-Chem.  Have a nice day.  *
