 Q-Chem 6.2, Q-Chem, Inc., Pleasanton, CA (2024)
 Q-Chem 6.2.0 for Intel X86 EM64T Linux

User input:
--------------------------------------------------------------
$molecule
0 1
H    -1.35530   -0.00009   0.96646
Si   -2.53568   -0.00003   0.02213
C    -2.42322   -1.55027   -1.03852
H    -1.50030   -1.55984   -1.64054
H    -2.43158   -2.46207   -0.42004
H    -3.27588   -1.60939   -1.73483
C    -4.09460   -0.00017   1.07385
H    -4.14057   -0.89063   1.72067
H    -4.99405   -0.00012   0.43638
H    -4.14060   0.89015    1.72086
C    -2.42329   1.55043    -1.03821
H    -3.27596   1.60964    -1.73451
H    -1.50038   1.56016    -1.64023
H    -2.43171   2.46210    -0.41956
I    1.25298    0.00001    0.26011
C    3.19904    0.00005    -0.26107
N    4.31717    0.00017    -0.56149
$end

$rem
JOBTYPE  OPT
METHOD  B3LYP
BASIS  DEF2-SVPD
SYMMETRY  FALSE
SYM_IGNORE  TRUE
MEM_TOTAL  8000
MEM_STATIC  2000
BASIS_LIN_DEP_THRESH  6
THRESH  14
SCF_CONVERGENCE  8
FD_MAT_VEC_PROD  FALSE
XC_GRID  000099000590
NL_GRID  1
MAX_SCF_CYCLES  200
GEOM_OPT_MAX_CYCLES  200
GEOM_OPT_DRIVER  OPTIMIZE
$end

--------------------------------------------------------------

   13    -800.2613381685      9.74e-09  Convergence criterion met
 Total energy =  -800.26133817
   10    -800.2616451380      6.83e-09  Convergence criterion met
 Total energy =  -800.26164514
   10    -800.2617720199      4.25e-09  Convergence criterion met
 Total energy =  -800.26177202
   11    -800.2618200843      2.26e-09  Convergence criterion met
 Total energy =  -800.26182008
   11    -800.2621386251      3.31e-09  Convergence criterion met
 Total energy =  -800.26213863
   10    -800.2622318545      6.14e-09  Convergence criterion met
 Total energy =  -800.26223185
   11    -800.2624287100      8.56e-09  Convergence criterion met
 Total energy =  -800.26242871
   11    -800.2625209403      8.87e-09  Convergence criterion met
    9    -800.2625985014      8.30e-09  Convergence criterion met
 Total energy =  -800.26259850
    8    -800.2626006441      6.80e-09  Convergence criterion met
 Total energy =  -800.26260064
    8    -800.2626026681      4.78e-09  Convergence criterion met
 Total energy =  -800.26260267
    8    -800.2626047523      5.81e-09  Convergence criterion met
 Total energy =  -800.26260475
    8    -800.2626063890      5.50e-09  Convergence criterion met
 Total energy =  -800.26260639
    7    -800.2626072830      8.60e-09  Convergence criterion met
 Total energy =  -800.26260728
 Final energy is   -800.262607283024
 **  OPTIMIZATION CONVERGED  **
 Total job time:  881.16s(wall), 14015.50s(cpu)
        *  Thank you very much for using Q-Chem.  Have a nice day.  *
 Q-Chem 6.2, Q-Chem, Inc., Pleasanton, CA (2024)
 Q-Chem 6.2.0 for Intel X86 EM64T Linux

User input:
--------------------------------------------------------------

$molecule
read
$end

$rem
JOBTYPE  FREQ
METHOD  B3LYP
BASIS  DEF2-SVPD
SYMMETRY  FALSE
SYM_IGNORE  TRUE
MEM_TOTAL  8000
MEM_STATIC  2000
BASIS_LIN_DEP_THRESH  6
THRESH  14
SCF_CONVERGENCE  8
FD_MAT_VEC_PROD  FALSE
XC_GRID  000099000590
NL_GRID  1
MAX_SCF_CYCLES  200
GEOM_OPT_MAX_CYCLES  200
GEOM_OPT_DRIVER  OPTIMIZE
SCF_GUESS  READ
$end
--------------------------------------------------------------

             Standard Nuclear Orientation (Angstroms)
    I     Atom           X                Y                Z
 ----------------------------------------------------------------
    1      H      -1.0474238918    -0.0003485916    -0.0353802865
    2      Si     -2.5224970127    -0.0000655311    -0.3479827471
    3      C      -2.8907160767    -1.5579274498    -1.3454528078
    4      H      -2.3199974504    -1.5774458918    -2.2862050480
    5      H      -2.6337093300    -2.4653235311    -0.7784793070
    6      H      -3.9600120260    -1.6156820270    -1.6024955151
    7      C      -3.4493479977    -0.0001990693     1.2947614274
    8      H      -3.2022682294    -0.8893347748     1.8938879793
    9      H      -4.5382500992    -0.0000607093     1.1310774878
   10      H      -3.2020866102     0.8886332050     1.8942705393
   11      C      -2.8902822588     1.5581892394    -1.3449669273
   12      H      -3.9595597631     1.6163113457    -1.6020077876
   13      H      -2.3195437207     1.5777463605    -2.2857012224
   14      H      -2.6330113262     2.4653535914    -0.7777432518
   15      I       1.5566780730    -0.0011072985     0.3450194563
   16      C       3.5567510741     0.0003669756     0.6808148934
   17      N       4.7013466457     0.0009941568     0.8780431172
 ----------------------------------------------------------------

    2    -800.2626072829      3.37e-09  Convergence criterion met
 Total energy =  -800.26260728

                    Orbital Energies (a.u.)
 --------------------------------------------------------------

 Alpha MOs
 -- Occupied --
-66.1310 -14.3434 -10.2540 -10.1848 -10.1848 -10.1848  -6.8996  -5.2926
 -4.9296  -4.9100  -4.9100  -3.6555  -3.6541  -3.6541  -1.9770  -1.9705
 -1.9705  -1.9541  -1.9541  -0.9075  -0.7660  -0.7262  -0.6901  -0.6901
 -0.5114  -0.4899  -0.4365  -0.4261  -0.4260  -0.4096  -0.4095  -0.3999
 -0.3779  -0.3779  -0.3747  -0.3344  -0.3263  -0.3262  -0.2976  -0.2976

          Ground-State Mulliken Net Atomic Charges

     Atom                 Charge (a.u.)
  ----------------------------------------
      1 H                     0.194356
      2 Si                   -0.439428
      3 C                     0.473703
      4 H                    -0.140513
      5 H                    -0.138316
      6 H                    -0.127531
      7 C                     0.487931
      8 H                    -0.137409
      9 H                    -0.122535
     10 H                    -0.137412
     11 C                     0.473784
     12 H                    -0.127462
     13 H                    -0.140502
     14 H                    -0.138307
     15 I                     0.351729
     16 C                    -0.201854
     17 N                    -0.130234
  ----------------------------------------
  Sum of atomic charges =     0.000000

                    Cartesian Multipole Moments
 -----------------------------------------------------------------
    Charge (ESU x 10^10)
                -0.0000
    Dipole Moment (Debye)
         X      -5.8728      Y      -0.0020      Z      -1.0169
       Tot       5.9602
    Quadrupole Moments (Debye-Ang)
        XX     -93.2633     XY      -0.0078     YY     -73.0644
        XZ      -3.8743     YZ      -0.0014     ZZ     -73.7944

 Frequency:        13.62                  15.02                  51.01
 Force Cnst:      0.0004                 0.0005                 0.0106
 Red. Mass:       3.8640                 3.9008                 6.8950
 IR Intens:        0.930                  0.925                  2.065
 Frequency:        54.15                  54.38                 125.71
 Force Cnst:      0.0099                 0.0100                 0.0094
 Red. Mass:       5.7358                 5.7383                 1.0108
 IR Intens:        1.755                  1.712                  0.000
 Frequency:       158.10                 160.12                 201.97
 Force Cnst:      0.0154                 0.0158                 0.0543
 Red. Mass:       1.0464                 1.0451                 2.2596
 IR Intens:        0.000                  0.000                  0.888
 Frequency:       202.02                 240.94                 319.41
 Force Cnst:      0.0540                 0.0827                 0.7486
 Red. Mass:       2.2472                 2.4178                12.4530
 IR Intens:        0.883                  0.847                  2.121
 Frequency:       319.45                 469.97                 605.07
 Force Cnst:      0.7487                 1.9867                 0.2306
 Red. Mass:      12.4520                15.2664                 1.0690
 IR Intens:        2.125                 17.320                  8.283
 Frequency:       606.38                 608.82                 669.19
 Force Cnst:      0.2309                 0.7391                 0.3084
 Red. Mass:       1.0657                 3.3845                 1.1689
 IR Intens:        7.876                  2.957                  0.000
 Frequency:       704.63                 704.65                 835.34
 Force Cnst:      0.8643                 0.8644                 0.5605
 Red. Mass:       2.9545                 2.9548                 1.3633
 IR Intens:       10.051                 10.053                  9.746
 Frequency:       835.73                 856.06                 895.40
 Force Cnst:      0.5632                 0.6742                 0.6446
 Red. Mass:       1.3687                 1.5615                 1.3645
 IR Intens:       10.573                128.341                143.075
 Frequency:       896.95                1260.87                1261.20
 Force Cnst:      0.6430                 1.1832                 1.1840
 Red. Mass:       1.3566                 1.2631                 1.2633
 IR Intens:      142.189                 32.399                 32.703
 Frequency:      1270.81                1418.48                1422.14
 Force Cnst:      1.1727                 1.2481                 1.2515
 Red. Mass:       1.2325                 1.0528                 1.0503
 IR Intens:        3.549                  0.001                  0.027
 Frequency:      1422.19                1430.91                1430.92
 Force Cnst:      1.2516                 1.2625                 1.2625
 Red. Mass:       1.0503                 1.0465                 1.0465
 IR Intens:        0.061                  3.416                  3.504
 Frequency:      1438.78                2125.31                2295.01
 Force Cnst:      1.2742                 2.7648                38.3292
 Red. Mass:       1.0447                 1.0389                12.3512
 IR Intens:        6.870                887.861                 13.520
 Frequency:      3020.29                3020.55                3022.01
 Force Cnst:      5.5679                 5.5686                 5.5740
 Red. Mass:       1.0360                 1.0359                 1.0359
 IR Intens:        3.954                  3.207                  3.383
 Frequency:      3099.81                3100.52                3102.13
 Force Cnst:      6.2334                 6.2353                 6.2400
 Red. Mass:       1.1010                 1.1009                 1.1006
 IR Intens:        0.626                  5.911                 16.319
 Frequency:      3106.46                3106.70                3108.66
 Force Cnst:      6.2615                 6.2622                 6.2706
 Red. Mass:       1.1013                 1.1012                 1.1013
 IR Intens:        3.050                 11.407                  8.604

 STANDARD THERMODYNAMIC QUANTITIES AT   298.15 K  AND     1.00 ATM

   This Molecule has  0 Imaginary Frequencies
   Zero point vibrational energy:       78.723 kcal/mol

   Atom    1 Element H  Has Mass    1.00783
   Atom    2 Element Si Has Mass   27.97693
   Atom    3 Element C  Has Mass   12.00000
   Atom    4 Element H  Has Mass    1.00783
   Atom    5 Element H  Has Mass    1.00783
   Atom    6 Element H  Has Mass    1.00783
   Atom    7 Element C  Has Mass   12.00000
   Atom    8 Element H  Has Mass    1.00783
   Atom    9 Element H  Has Mass    1.00783
   Atom   10 Element H  Has Mass    1.00783
   Atom   11 Element C  Has Mass   12.00000
   Atom   12 Element H  Has Mass    1.00783
   Atom   13 Element H  Has Mass    1.00783
   Atom   14 Element H  Has Mass    1.00783
   Atom   15 Element I  Has Mass  126.90440
   Atom   16 Element C  Has Mass   12.00000
   Atom   17 Element N  Has Mass   14.00307
   Molecular Mass:   226.962700 amu
   Principal axes and moments of inertia in amu*Bohr^2:
                             1           2           3
    Eigenvalues --      587.98703  5244.38830  5244.80926
          X              -0.98583    -0.00004    -0.16776
          Y               0.00006    -1.00000    -0.00009
          Z              -0.16776    -0.00010     0.98583
   Rotational Symmetry Number is   1
   The Molecule is an Asymmetric Top
   Translational Enthalpy:        0.889 kcal/mol
   Rotational Enthalpy:           0.889 kcal/mol
   Vibrational Enthalpy:         85.068 kcal/mol
   gas constant (RT):             0.592 kcal/mol
   Translational Entropy:        42.161  cal/mol.K
   Rotational Entropy:           31.159  cal/mol.K
   Vibrational Entropy:          49.473  cal/mol.K

   Total Enthalpy:               87.438 kcal/mol
   Total Entropy:               122.793  cal/mol.K

 Total job time:  1626.24s(wall), 25801.78s(cpu)
        *  Thank you very much for using Q-Chem.  Have a nice day.  *
