 Q-Chem 6.2, Q-Chem, Inc., Pleasanton, CA (2024)
 Q-Chem 6.2.0 for Intel X86 EM64T Linux

User input:
--------------------------------------------------------------
$molecule
0 1
C    -1.51210   -1.71631   0.62009
Si   -1.41437   -0.00461   -0.15706
C    -1.13363   1.30926    1.16393
C    -2.97214   0.37341    -1.14736
H    -0.24841   0.01975    -1.10838
H    -1.65536   -2.49737   -0.14381
H    -0.59028   -1.94888   1.17570
H    -2.35714   -1.77772   1.32571
H    -1.00986   2.30944    0.71832
H    -0.23502   1.08857    1.76109
H    -1.99163   1.35401    1.85488
H    -2.91480   1.36682    -1.62041
H    -3.12947   -0.37034   -1.94479
H    -3.86222   0.36195    -0.49674
C    2.18021    -0.05549   0.02583
O    1.86475    -0.64128   0.99465
F    2.59795    -0.59079   -1.09759
F    2.19402    1.25102    -0.11258
$end

$rem
JOBTYPE  OPT
METHOD  B3LYP
BASIS  DEF2-SVPD
SYMMETRY  FALSE
SYM_IGNORE  TRUE
MEM_TOTAL  8000
MEM_STATIC  2000
BASIS_LIN_DEP_THRESH  6
THRESH  14
SCF_CONVERGENCE  8
FD_MAT_VEC_PROD  FALSE
XC_GRID  000099000590
NL_GRID  1
MAX_SCF_CYCLES  200
GEOM_OPT_MAX_CYCLES  200
GEOM_OPT_DRIVER  OPTIMIZE
$end

--------------------------------------------------------------

   14    -722.5160263748      2.20e-09  Convergence criterion met
 Total energy =  -722.51602637
    9    -722.5161721412      9.65e-09  Convergence criterion met
 Total energy =  -722.51617214
   10    -722.5162955742      4.65e-09  Convergence criterion met
 Total energy =  -722.51629557
   10    -722.5164514590      6.38e-09  Convergence criterion met
 Total energy =  -722.51645146
   10    -722.5165828377      4.75e-09  Convergence criterion met
 Total energy =  -722.51658284
   10    -722.5166443880      3.96e-09  Convergence criterion met
 Total energy =  -722.51664439
    9    -722.5166599982      7.98e-09  Convergence criterion met
 Total energy =  -722.51666000
    9    -722.5166696232      5.69e-09  Convergence criterion met
    9    -722.5167752742      9.86e-09  Convergence criterion met
 Total energy =  -722.51677527
   10    -722.5167796704      3.69e-09  Convergence criterion met
 Total energy =  -722.51677967
   10    -722.5167845114      3.84e-09  Convergence criterion met
 Total energy =  -722.51678451
   10    -722.5167883555      4.33e-09  Convergence criterion met
 Total energy =  -722.51678836
    9    -722.5167901547      6.83e-09  Convergence criterion met
 Total energy =  -722.51679015
    8    -722.5167908393      9.97e-09  Convergence criterion met
 Total energy =  -722.51679084
 Final energy is   -722.516790839334
 **  OPTIMIZATION CONVERGED  **
 Total job time:  1408.12s(wall), 22412.47s(cpu)
        *  Thank you very much for using Q-Chem.  Have a nice day.  *
 Q-Chem 6.2, Q-Chem, Inc., Pleasanton, CA (2024)
 Q-Chem 6.2.0 for Intel X86 EM64T Linux

User input:
--------------------------------------------------------------

$molecule
read
$end

$rem
JOBTYPE  FREQ
METHOD  B3LYP
BASIS  DEF2-SVPD
SYMMETRY  FALSE
SYM_IGNORE  TRUE
MEM_TOTAL  8000
MEM_STATIC  2000
BASIS_LIN_DEP_THRESH  6
THRESH  14
SCF_CONVERGENCE  8
FD_MAT_VEC_PROD  FALSE
XC_GRID  000099000590
NL_GRID  1
MAX_SCF_CYCLES  200
GEOM_OPT_MAX_CYCLES  200
GEOM_OPT_DRIVER  OPTIMIZE
SCF_GUESS  READ
$end
--------------------------------------------------------------

             Standard Nuclear Orientation (Angstroms)
    I     Atom           X                Y                Z
 ----------------------------------------------------------------
    1      C      -1.5151491630    -1.6873439058     0.6314340682
    2      Si     -1.4654856545     0.0629872820    -0.0761739073
    3      C      -1.3681262694     1.3429311970     1.3094317849
    4      C      -2.9611241861     0.3854351534    -1.1856808274
    5      H      -0.2324129914     0.1919215873    -0.9224878653
    6      H      -1.5522794044    -2.4424720857    -0.1684511730
    7      H      -0.6244023412    -1.8904546530     1.2443067452
    8      H      -2.4013775866    -1.8319274296     1.2687841909
    9      H      -1.3051600147     2.3655388503     0.9072959118
   10      H      -0.4838224737     1.1753428895     1.9421029839
   11      H      -2.2575182885     1.2928337615     1.9567427033
   12      H      -2.9222266313     1.3940937616    -1.6241969112
   13      H      -3.0067469822    -0.3378890567    -2.0138691006
   14      H      -3.9008250690     0.3034412482    -0.6174427145
   15      C       2.4267533149    -0.1480949667    -0.1233134075
   16      O       2.1723984951    -0.4652866983     0.9789154136
   17      F       2.5663625986    -0.9608901229    -1.1506158641
   18      F       2.6416426475     1.0812731878    -0.5453020308
 ----------------------------------------------------------------

    2    -722.5167908394      3.76e-09  Convergence criterion met
 Total energy =  -722.51679084

                    Orbital Energies (a.u.)
 --------------------------------------------------------------

 Alpha MOs
 -- Occupied --
-66.1111 -24.7807 -24.7806 -19.2022 -10.4640 -10.1706 -10.1687 -10.1683
 -5.2731  -3.6356  -3.6348  -3.6348  -1.3338  -1.2608  -1.1157  -0.7102
 -0.7025  -0.6752  -0.6739  -0.6394  -0.5920  -0.5590  -0.4956  -0.4901
 -0.4804  -0.4760  -0.4227  -0.4177  -0.4112  -0.4086  -0.3949  -0.3940
 -0.3849  -0.3730  -0.3169  -0.3095  -0.3092

          Ground-State Mulliken Net Atomic Charges

     Atom                 Charge (a.u.)
  ----------------------------------------
      1 C                     0.510901
      2 Si                   -0.540909
      3 C                     0.493053
      4 C                     0.566344
      5 H                     0.276953
      6 H                    -0.131468
      7 H                    -0.220761
      8 H                    -0.116151
      9 H                    -0.132024
     10 H                    -0.198726
     11 H                    -0.123635
     12 H                    -0.135701
     13 H                    -0.134944
     14 H                    -0.108893
     15 C                     1.122584
     16 O                    -0.364022
     17 F                    -0.380460
     18 F                    -0.382143
  ----------------------------------------
  Sum of atomic charges =     0.000000

                    Cartesian Multipole Moments
 -----------------------------------------------------------------
    Charge (ESU x 10^10)
                -0.0000
    Dipole Moment (Debye)
         X      -0.4723      Y       0.2109      Z      -0.5341
       Tot       0.7435
    Quadrupole Moments (Debye-Ang)
        XX     -53.3481     XY       0.3786     YY     -57.6100
        XZ      -1.8929     YZ       0.5470     ZZ     -58.7935

 Frequency:        12.89                  16.20                  28.09
 Force Cnst:      0.0006                 0.0005                 0.0018
 Red. Mass:       6.2283                 3.4124                 3.9606
 IR Intens:        0.343                  0.149                  1.168
 Frequency:        42.40                  47.81                  66.20
 Force Cnst:      0.0090                 0.0123                 0.0157
 Red. Mass:       8.4678                 9.1423                 6.0764
 IR Intens:        0.894                  0.022                  0.579
 Frequency:       125.88                 156.27                 158.94
 Force Cnst:      0.0094                 0.0151                 0.0156
 Red. Mass:       1.0102                 1.0478                 1.0481
 IR Intens:        0.000                  0.004                  0.001
 Frequency:       199.97                 201.90                 235.88
 Force Cnst:      0.0528                 0.0537                 0.0774
 Red. Mass:       2.2425                 2.2362                 2.3618
 IR Intens:        0.894                  0.808                  1.470
 Frequency:       578.99                 606.35                 607.88
 Force Cnst:      3.4636                 0.2325                 0.7263
 Red. Mass:      17.5361                 1.0731                 3.3360
 IR Intens:        3.635                  7.199                  2.413
 Frequency:       617.37                 617.84                 667.81
 Force Cnst:      0.2450                 3.3347                 0.3071
 Red. Mass:       1.0909                14.8274                 1.1689
 IR Intens:        9.812                  5.635                  0.017
 Frequency:       700.24                 700.86                 765.84
 Force Cnst:      0.8726                 0.8730                 4.1476
 Red. Mass:       3.0204                 3.0164                12.0026
 IR Intens:       11.118                 10.994                 82.837
 Frequency:       835.96                 837.89                 858.43
 Force Cnst:      0.5773                 0.5906                 0.6798
 Red. Mass:       1.4021                 1.4278                 1.5656
 IR Intens:       16.436                 21.537                 59.255
 Frequency:       906.82                 916.61                 968.58
 Force Cnst:      0.6359                 0.6317                 8.7020
 Red. Mass:       1.3124                 1.2762                15.7435
 IR Intens:      134.998                145.810                 62.218
 Frequency:      1230.05                1258.69                1259.80
 Force Cnst:     11.5363                 1.1795                 1.1825
 Red. Mass:      12.9411                 1.2636                 1.2646
 IR Intens:      377.605                 31.309                 26.051
 Frequency:      1269.42                1419.83                1424.14
 Force Cnst:      1.1712                 1.2506                 1.2552
 Red. Mass:       1.2335                 1.0529                 1.0504
 IR Intens:        7.716                  0.017                  0.003
 Frequency:      1424.56                1431.83                1432.15
 Force Cnst:      1.2560                 1.2643                 1.2655
 Red. Mass:       1.0505                 1.0467                 1.0472
 IR Intens:        0.015                  3.171                  2.720
 Frequency:      1440.74                1985.72                2161.63
 Force Cnst:      1.2779                30.4364                 2.8614
 Red. Mass:       1.0449                13.1011                 1.0393
 IR Intens:        8.519                408.550                237.739
 Frequency:      3019.22                3019.91                3020.13
 Force Cnst:      5.5626                 5.5658                 5.5663
 Red. Mass:       1.0357                 1.0358                 1.0358
 IR Intens:        5.816                  6.944                  3.344
 Frequency:      3098.72                3098.75                3100.49
 Force Cnst:      6.2293                 6.2290                 6.2337
 Red. Mass:       1.1011                 1.1010                 1.1006
 IR Intens:        2.522                  2.476                 24.593
 Frequency:      3104.22                3106.42                3107.06
 Force Cnst:      6.2523                 6.2621                 6.2630
 Red. Mass:       1.1012                 1.1014                 1.1011
 IR Intens:       10.895                  4.421                 11.645

 STANDARD THERMODYNAMIC QUANTITIES AT   298.15 K  AND     1.00 ATM

   This Molecule has  0 Imaginary Frequencies
   Zero point vibrational energy:       82.763 kcal/mol

   Atom    1 Element C  Has Mass   12.00000
   Atom    2 Element Si Has Mass   27.97693
   Atom    3 Element C  Has Mass   12.00000
   Atom    4 Element C  Has Mass   12.00000
   Atom    5 Element H  Has Mass    1.00783
   Atom    6 Element H  Has Mass    1.00783
   Atom    7 Element H  Has Mass    1.00783
   Atom    8 Element H  Has Mass    1.00783
   Atom    9 Element H  Has Mass    1.00783
   Atom   10 Element H  Has Mass    1.00783
   Atom   11 Element H  Has Mass    1.00783
   Atom   12 Element H  Has Mass    1.00783
   Atom   13 Element H  Has Mass    1.00783
   Atom   14 Element H  Has Mass    1.00783
   Atom   15 Element C  Has Mass   12.00000
   Atom   16 Element O  Has Mass   15.99491
   Atom   17 Element F  Has Mass   18.99840
   Atom   18 Element F  Has Mass   18.99840
   Molecular Mass:   140.046940 amu
   Principal axes and moments of inertia in amu*Bohr^2:
                             1           2           3
    Eigenvalues --      820.09980  2742.23456  2815.95107
          X              -0.99717     0.05318     0.05317
          Y               0.03990     0.97344    -0.22543
          Z               0.06374     0.22267     0.97281
   Rotational Symmetry Number is   1
   The Molecule is an Asymmetric Top
   Translational Enthalpy:        0.889 kcal/mol
   Rotational Enthalpy:           0.889 kcal/mol
   Vibrational Enthalpy:         89.309 kcal/mol
   gas constant (RT):             0.592 kcal/mol
   Translational Entropy:        40.722  cal/mol.K
   Rotational Entropy:           30.228  cal/mol.K
   Vibrational Entropy:          53.605  cal/mol.K

   Total Enthalpy:               91.679 kcal/mol
   Total Entropy:               124.554  cal/mol.K

 Total job time:  1892.16s(wall), 30061.64s(cpu)
        *  Thank you very much for using Q-Chem.  Have a nice day.  *
