 Q-Chem 6.2, Q-Chem, Inc., Pleasanton, CA (2024)
 Q-Chem 6.2.0 for Intel X86 EM64T Linux

User input:
--------------------------------------------------------------
$molecule
0 1
H    0.02669    0.00005    1.49943
Si   0.78961    0.00006    0.20216
C    0.33178    1.54856    -0.76659
H    -0.73953   1.55402    -1.02143
H    0.55364    2.46363    -0.19387
H    0.90094    1.59835    -1.70976
C    2.62916    0.00031    0.61801
H    2.90777    0.89047    1.20464
H    3.23878    0.00032    -0.30070
H    2.90798    -0.88971   1.20476
C    0.33217    -1.54870   -0.76636
H    0.90133    -1.59847   -1.70953
H    0.55427    -2.46363   -0.19352
H    -0.73914   -1.55449   -1.02119
N    -3.06699   -0.00012   -0.29700
C    -2.88249   -0.00032   0.84134
H    -2.69568   -0.00050   1.90506
$end

$rem
JOBTYPE  OPT
METHOD  B3LYP
BASIS  DEF2-SVPD
SYMMETRY  FALSE
SYM_IGNORE  TRUE
MEM_TOTAL  8000
MEM_STATIC  2000
BASIS_LIN_DEP_THRESH  6
THRESH  14
SCF_CONVERGENCE  8
FD_MAT_VEC_PROD  FALSE
XC_GRID  000099000590
NL_GRID  1
MAX_SCF_CYCLES  200
GEOM_OPT_MAX_CYCLES  200
GEOM_OPT_DRIVER  OPTIMIZE
$end

--------------------------------------------------------------

   12    -503.0734067890      8.73e-09  Convergence criterion met
 Total energy =  -503.07340679
    9    -503.0735124012      4.43e-09  Convergence criterion met
 Total energy =  -503.07351240
    9    -503.0735777555      3.98e-09  Convergence criterion met
 Total energy =  -503.07357776
    9    -503.0736922960      8.56e-09  Convergence criterion met
 Total energy =  -503.07369230
    9    -503.0737651804      3.28e-09  Convergence criterion met
 Total energy =  -503.07376518
    9    -503.0737951091      4.34e-09  Convergence criterion met
 Total energy =  -503.07379511
    9    -503.0738037061      3.41e-09  Convergence criterion met
 Total energy =  -503.07380371
    9    -503.0738094468      4.86e-09  Convergence criterion met
   10    -503.0754079817      5.14e-09  Convergence criterion met
 Total energy =  -503.07540798
   11    -503.0752576912      1.08e-09  Convergence criterion met
 Total energy =  -503.07525769
   11    -503.0754174951      8.80e-10  Convergence criterion met
 Total energy =  -503.07541750
    9    -503.0754178574      5.27e-09  Convergence criterion met
 Total energy =  -503.07541786
   10    -503.0754206117      1.77e-09  Convergence criterion met
 Total energy =  -503.07542061
    8    -503.0754212107      9.32e-09  Convergence criterion met
 Total energy =  -503.07542121
 Final energy is   -503.075421210726
 **  OPTIMIZATION CONVERGED  **
 Total job time:  2408.04s(wall), 38362.08s(cpu)
        *  Thank you very much for using Q-Chem.  Have a nice day.  *
 Q-Chem 6.2, Q-Chem, Inc., Pleasanton, CA (2024)
 Q-Chem 6.2.0 for Intel X86 EM64T Linux

User input:
--------------------------------------------------------------

$molecule
read
$end

$rem
JOBTYPE  FREQ
METHOD  B3LYP
BASIS  DEF2-SVPD
SYMMETRY  FALSE
SYM_IGNORE  TRUE
MEM_TOTAL  8000
MEM_STATIC  2000
BASIS_LIN_DEP_THRESH  6
THRESH  14
SCF_CONVERGENCE  8
FD_MAT_VEC_PROD  FALSE
XC_GRID  000099000590
NL_GRID  1
MAX_SCF_CYCLES  200
GEOM_OPT_MAX_CYCLES  200
GEOM_OPT_DRIVER  OPTIMIZE
SCF_GUESS  READ
$end
--------------------------------------------------------------

             Standard Nuclear Orientation (Angstroms)
    I     Atom           X                Y                Z
 ----------------------------------------------------------------
    1      H      -0.5759575636    -0.0001101008     0.5173995609
    2      Si      0.7277860724     0.0000586036    -0.2292361443
    3      C       0.7819192411     1.5563055635    -1.2969238837
    4      H      -0.0484278344     1.5756641641    -2.0189210783
    5      H       0.7109350039     2.4664937470    -0.6826302475
    6      H       1.7218457441     1.6109838932    -1.8681066281
    7      C       2.1238342276     0.0001399495     1.0419116620
    8      H       2.0767875639     0.8887545850     1.6892051496
    9      H       3.1069302656     0.0002753534     0.5465834771
   10      H       2.0769838248    -0.8885472513     1.6891301992
   11      C       0.7823271168    -1.5560952689    -1.2970350829
   12      H       1.7222360752    -1.6104119270    -1.8682805097
   13      H       0.7116539977    -2.4663598169    -0.6828270206
   14      H      -0.0480521008    -1.5756729927    -2.0189956308
   15      N      -4.3042478748    -0.0007243420     2.5220209773
   16      C      -3.2847293223    -0.0005434722     1.9804725597
   17      H      -2.3315344380    -0.0003806880     1.4716826420
 ----------------------------------------------------------------

    2    -503.0754212112      1.36e-09  Convergence criterion met
 Total energy =  -503.07542121

                    Orbital Energies (a.u.)
 --------------------------------------------------------------

 Alpha MOs
 -- Occupied --
-66.1252 -14.3506 -10.2406 -10.1804 -10.1804 -10.1803  -5.2862  -3.6489
 -3.6478  -3.6478  -0.9124  -0.7214  -0.6857  -0.6856  -0.5970  -0.4926
 -0.4322  -0.4217  -0.4216  -0.4052  -0.4052  -0.3956  -0.3818  -0.3640
 -0.3640  -0.3300  -0.3212  -0.3211

          Ground-State Mulliken Net Atomic Charges

     Atom                 Charge (a.u.)
  ----------------------------------------
      1 H                     0.208455
      2 Si                   -0.499249
      3 C                     0.420827
      4 H                    -0.136895
      5 H                    -0.137585
      6 H                    -0.114990
      7 C                     0.422893
      8 H                    -0.135631
      9 H                    -0.112937
     10 H                    -0.135604
     11 C                     0.420833
     12 H                    -0.114968
     13 H                    -0.137617
     14 H                    -0.136901
     15 N                     0.125265
     16 C                     1.315819
     17 H                    -1.251716
  ----------------------------------------
  Sum of atomic charges =     0.000000

                    Cartesian Multipole Moments
 -----------------------------------------------------------------
    Charge (ESU x 10^10)
                -0.0000
    Dipole Moment (Debye)
         X       3.8563      Y       0.0007      Z      -2.0884
       Tot       4.3855
    Quadrupole Moments (Debye-Ang)
        XX     -66.8135     XY      -0.0033     YY     -47.3274
        XZ      11.2078     YZ       0.0019     ZZ     -53.7521

 Frequency:        18.57                  18.96                  65.66
 Force Cnst:      0.0006                 0.0006                 0.0182
 Red. Mass:       2.9468                 2.9263                 7.1469
 IR Intens:        1.202                  1.240                  0.694
 Frequency:       124.11                 134.43                 135.70
 Force Cnst:      0.0092                 0.0393                 0.0391
 Red. Mass:       1.0118                 3.6951                 3.6007
 IR Intens:        0.021                 18.897                 18.625
 Frequency:       154.59                 156.81                 201.20
 Force Cnst:      0.0151                 0.0154                 0.0539
 Red. Mass:       1.0696                 1.0599                 2.2590
 IR Intens:        0.222                  0.116                  0.497
 Frequency:       201.33                 237.87                 608.39
 Force Cnst:      0.0538                 0.0794                 0.7431
 Red. Mass:       2.2532                 2.3825                 3.4074
 IR Intens:        0.512                  1.171                  2.046
 Frequency:       611.19                 612.70                 668.63
 Force Cnst:      0.2369                 0.2380                 0.3079
 Red. Mass:       1.0763                 1.0761                 1.1688
 IR Intens:        6.337                  6.239                  0.000
 Frequency:       702.03                 702.14                 835.84
 Force Cnst:      0.8701                 0.8698                 0.5670
 Red. Mass:       2.9964                 2.9947                 1.3776
 IR Intens:       12.166                 12.075                 19.052
 Frequency:       836.21                 857.34                 868.54
 Force Cnst:      0.5687                 0.6768                 0.5889
 Red. Mass:       1.3805                 1.5628                 1.3249
 IR Intens:       19.621                 78.740                  6.796
 Frequency:       869.47                 928.67                 930.56
 Force Cnst:      0.5903                 0.6307                 0.6306
 Red. Mass:       1.3253                 1.2413                 1.2360
 IR Intens:        7.662                172.594                171.117
 Frequency:      1260.54                1260.96                1270.94
 Force Cnst:      1.1829                 1.1836                 1.1733
 Red. Mass:       1.2635                 1.2634                 1.2328
 IR Intens:       32.535                 32.596                  4.710
 Frequency:      1419.61                1422.62                1422.73
 Force Cnst:      1.2503                 1.2524                 1.2525
 Red. Mass:       1.0530                 1.0503                 1.0503
 IR Intens:        0.000                  0.002                  0.000
 Frequency:      1431.79                1431.87                1439.05
 Force Cnst:      1.2642                 1.2643                 1.2746
 Red. Mass:       1.0467                 1.0466                 1.0446
 IR Intens:        2.891                  2.927                  8.419
 Frequency:      2163.75                2213.19                3020.45
 Force Cnst:      2.8733                13.5457                 5.5686
 Red. Mass:       1.0416                 4.6937                 1.0360
 IR Intens:      391.875                 10.365                  5.030
 Frequency:      3020.67                3022.23                3099.58
 Force Cnst:      5.5691                 5.5744                 6.2330
 Red. Mass:       1.0359                 1.0358                 1.1011
 IR Intens:        3.599                  3.878                  0.666
 Frequency:      3100.47                3102.75                3105.42
 Force Cnst:      6.2351                 6.2440                 6.2566
 Red. Mass:       1.1009                 1.1008                 1.1012
 IR Intens:        9.814                 14.740                  1.940
 Frequency:      3105.76                3106.52                3383.20
 Force Cnst:      6.2575                 6.2610                 8.1598
 Red. Mass:       1.1011                 1.1012                 1.2100
 IR Intens:       14.007                 12.234                298.404

 STANDARD THERMODYNAMIC QUANTITIES AT   298.15 K  AND     1.00 ATM

   This Molecule has  0 Imaginary Frequencies
   Zero point vibrational energy:       84.752 kcal/mol

   Atom    1 Element H  Has Mass    1.00783
   Atom    2 Element Si Has Mass   27.97693
   Atom    3 Element C  Has Mass   12.00000
   Atom    4 Element H  Has Mass    1.00783
   Atom    5 Element H  Has Mass    1.00783
   Atom    6 Element H  Has Mass    1.00783
   Atom    7 Element C  Has Mass   12.00000
   Atom    8 Element H  Has Mass    1.00783
   Atom    9 Element H  Has Mass    1.00783
   Atom   10 Element H  Has Mass    1.00783
   Atom   11 Element C  Has Mass   12.00000
   Atom   12 Element H  Has Mass    1.00783
   Atom   13 Element H  Has Mass    1.00783
   Atom   14 Element H  Has Mass    1.00783
   Atom   15 Element N  Has Mass   14.00307
   Atom   16 Element C  Has Mass   12.00000
   Atom   17 Element H  Has Mass    1.00783
   Molecular Mass:   101.066130 amu
   Principal axes and moments of inertia in amu*Bohr^2:
                             1           2           3
    Eigenvalues --      587.26523  2511.98625  2512.10144
          X              -0.87738     0.47924    -0.02307
          Y              -0.00013    -0.04833    -0.99883
          Z               0.47980     0.87635    -0.04247
   Rotational Symmetry Number is   1
   The Molecule is an Asymmetric Top
   Translational Enthalpy:        0.889 kcal/mol
   Rotational Enthalpy:           0.889 kcal/mol
   Vibrational Enthalpy:         90.295 kcal/mol
   gas constant (RT):             0.592 kcal/mol
   Translational Entropy:        39.750  cal/mol.K
   Rotational Entropy:           29.695  cal/mol.K
   Vibrational Entropy:          41.376  cal/mol.K

   Total Enthalpy:               92.665 kcal/mol
   Total Entropy:               110.821  cal/mol.K

 Total job time:  1311.24s(wall), 20798.77s(cpu)
        *  Thank you very much for using Q-Chem.  Have a nice day.  *
