 Q-Chem 6.2, Q-Chem, Inc., Pleasanton, CA (2024)
 Q-Chem 6.2.0 for Intel X86 EM64T Linux

User input:
--------------------------------------------------------------
$molecule
0 1
H    1.4409963009   0.0011146171   0.0000000000
C    0.3410159978   0.0004361711   0.0000000000
F   -0.1260610932  -1.2534938134   0.0000000000
F   -0.1273137401   0.6268711474   1.0856865480
F   -0.1273137401   0.6268711474  -1.0856865480
$end

$rem
BASIS  =  def2-TZVPPD
GUI  =  2
JOB_TYPE  =  SP
METHOD  =  wB97XV
SCF_CONVERGENCE  =  8
POINT_GROUP_SYMMETRY  FALSE
ESP_GRID  -1
MAKE_CUBE_FILES  TRUE
PLOTS     TRUE
GUI       2
$end

$plots
grid_points  100 100 100
$end
--------------------------------------------------------------

             Standard Nuclear Orientation (Angstroms)
    I     Atom           X                Y                Z
 ----------------------------------------------------------------
    1      H       1.4409963009     0.0011146171     0.0000000000
    2      C       0.3410159978     0.0004361711     0.0000000000
    3      F      -0.1260610932    -1.2534938134     0.0000000000
    4      F      -0.1273137401     0.6268711474     1.0856865480
    5      F      -0.1273137401     0.6268711474    -1.0856865480
 ----------------------------------------------------------------

   12    -338.2766946685      1.55e-09  Convergence criterion met
 Total energy =  -338.27669467

                    Orbital Energies (a.u.)
 --------------------------------------------------------------

 Alpha MOs
 -- Occupied --
-24.8022 -24.8022 -24.8022 -10.5276  -1.4572  -1.3673  -1.3673  -0.8543
 -0.7351  -0.7191  -0.7190  -0.5952  -0.5952  -0.5579  -0.5579  -0.5359
 -0.5133

          Ground-State Mulliken Net Atomic Charges

     Atom                 Charge (a.u.)
  ----------------------------------------
      1 H                    -0.016825
      2 C                     0.546802
      3 F                    -0.176424
      4 F                    -0.176777
      5 F                    -0.176777
  ----------------------------------------
  Sum of atomic charges =     0.000000

                    Cartesian Multipole Moments
 -----------------------------------------------------------------
    Charge (ESU x 10^10)
                 0.0000
    Dipole Moment (Debye)
         X       1.6270      Y       0.0012      Z       0.0000
       Tot       1.6270
    Quadrupole Moments (Debye-Ang)
        XX     -18.7759     XY       0.0027     YY     -22.4221
        XZ      -0.0000     YZ      -0.0000     ZZ     -22.4223

 Total job time:  50.10s(wall), 400.55s(cpu)
        *  Thank you very much for using Q-Chem.  Have a nice day.  *
