 Q-Chem 6.2 (devel), Q-Chem, Inc., Pleasanton, CA (2024)
 Q-Chem 6.2.0 for Intel X86 EM64T Linux

User input:
--------------------------------------------------------------
$molecule
0 1
--
0 1
O    2.77773    -0.01318   0.00000
H    3.35837    -0.00196   -0.76769
H    3.35837    -0.00196   0.76769
--
0 1
H    0.59878    -0.04551   0.00000
C    -0.49895   -0.00740   0.00000
F    -1.02270   -1.24292   0.00000
F    -0.95441   0.63633    1.08615
F    -0.95441   0.63633    -1.08615
$end

$rem
JOBTYPE  OPT
GEN_SCFMAN  TRUE
METHOD  WB97X-V
BASIS  DEF2-SVPD
UNRESTRICTED  FALSE
MAX_SCF_CYCLES  2000
THRESH  14
SCF_CONVERGENCE  9
MEM_TOTAL  8000
MEM_STATIC  2000
SCF_GUESS  FRAGMO
SYMMETRY  FALSE
SYM_IGNORE  FALSE
SCF_ALGORITHM  DIIS
BASIS_LIN_DEP_THRESH  6
IDERIV  1
XC_GRID  000075000302
NL_GRID  1
FD_MAT_VEC_PROD  FALSE
GEOM_OPT_TOL_GRADIENT  50
GEOM_OPT_TOL_DISPLACEMENT  50
GEOM_OPT_TOL_ENERGY  10
GEOM_OPT_DRIVER  OPTIMIZE
GEOM_OPT_MAX_CYCLES  200
$end

--------------------------------------------------------------

   13    -414.2523270539      1.30e-10  Convergence criterion met
 Total energy =  -414.25232705
    7    -414.2523270590      4.84e-10  Convergence criterion met
 Total energy =  -414.25232706
 Final energy is   -414.252327058979
 **  OPTIMIZATION CONVERGED  **
 Total job time:  31.74s(wall), 276.59s(cpu)
        *  Thank you very much for using Q-Chem.  Have a nice day.  *

User input: 2 of 6

                  Welcome to Q-Chem
     A Quantum Leap Into The Future Of Chemistry

 Q-Chem 6.2 (devel), Q-Chem, Inc., Pleasanton, CA (2024)

 E. Epifanovsky,  A. T. B. Gilbert,  Xintian Feng,  Joonho Lee,  Yuezhi Mao,
 N. Mardirossian,  P. Pokhilko,  A. White,  M. Wormit,  M. P. Coons,
 A. L. Dempwolff,  Zhengting Gan,  D. Hait,  P. R. Horn,  L. D. Jacobson,
 I. Kaliman,  J. Kussmann,  A. W. Lange,  Ka Un Lao,  D. S. Levine,  Jie Liu,
 S. C. McKenzie,  A. F. Morrison,  K. D. Nanda,  F. Plasser,  D. R. Rehn,
 M. L. Vidal,  Zhi-Qiang You,  Ying Zhu,  Huseyin Aksu,  B. Alam,
 B. Albrecht,  A. Aldossary,  E. Alguire,  J. H. Andersen,
 J. E. Arias-Martinez,  V. Athavale,  D. Barton,  K. Begam,  A. Behn,
 N. Bellonzi,  Y. A. Bernard,  E. J. Berquist,  H. Burton,  A. Carreras,
 K. Carter-Fenk,  Mathew Chow,  Romit Chakraborty,  Chandrima Chakravarty,
 Junhan Chen,  A. D. Chien,  K. D. Closser,  V. Cofer-Shabica,  L. Cunha,
 S. Dasgupta,  Jia Deng,  Joseph Dickinson,  M. de Wergifosse,
 M. Diedenhofen,  Hainam Do,  Wenjie Dou,  S. Ehlert,  Po-Tung Fang,
 S. Fatehi,  Qingguo Feng,  Jonathan Fetherolf,  T. Friedhoff,
 Thomas Froitzheim,  Sarai Folkestad,  B. Ganoe,  J. Gayvert,  Qinghui Ge,
 G. Gidofalvi,  M. Gimferrer,  M. Goldey,  Montgomery Gray,  J. Gomes,
 C. Gonzalez-Espinoza,  S. Gulania,  A. Gunina,  J. A. Gyamfi,
 M. W. D. Hanson-Heine,  P. H. P. Harbach,  A. W. Hauser,  M. F. Herbst,
 M. Hernandez Vera,  M. Hodecker,  Z. C. Holden,  S. Houck,  Xunkun Huang,
 Kerwin Hui,  B. C. Huynh,  K. Ikeda,  M. Ivanov,  Nayanthara K. Jayadev,
 Hyunjun Ji,  Zuxin Jin,  Hanjie Jiang,  Subrata Jana,  B. Kaduk,
 S. Kaehler,  R. Kang,  K. Khistyaev,  Jaehoon Kim,  Yongbin Kim,
 P. Klunzinger,  Z. Koczor-Benda,  Joong Hoon Koh,  D. Kosenkov,
 Saikiran Kotaru,  L. Koulias,  T. Kowalczyk,  C. M. Krauter,  K. Kue,
 A. Kunitsa,  T. Kus,  A. Landau,  K. V. Lawler,  D. Lefrancois,  S. Lehtola,
 Rain Li,  Shaozhi Li,  Tao E. Li,  Yi-Pei Li,  Jiashu Liang,  M. Liebenthal,
 Hung-Hsuan Lin,  You-Sheng Lin,  Fenglai Liu,  Kuan-Yu Liu,  Xiao Liu,
 M. Loipersberger,  A. Luenser,  C. Malbon,  Aniket Mandal,  Manisha,
 A. Manjanath,  P. Manohar,  E. Mansoor,  S. F. Manzer,  Shan-Ping Mao,
 A. V. Marenich,  T. Markovich,  S. Mason,  F. Matz,  S. A. Maurer,
 Samuel May,  Alexandra McIsaac,  P. F. McLaughlin,  M. F. S. J. Menger,
 J.-M. Mewes,  S. A. Mewes,  P. Morgante,  Mohammad Mostafanejad,
 Madhubani Mukherjee,  J. W. Mullinax,  Quyen Nguyen,  Avik Kumar Ojha,
 K. J. Oosterbaan,  Eno Paenurk,  Xiaoliang Pan,  G. Paran,  V. Parravicini,
 Alexander C. Paul,  Suranjan K. Paul,  F. Pavosevic,  Zheng Pei,  S. Prager,
 E. I. Proynov,  E. Ramos,  B. Rana,  A. E. Rask,  A. Rettig,  R. M. Richard,
 F. Rob,  E. Rossomme,  T. Scheele,  M. Scheurer,  M. Schneider,
 P. E. Schneider,  Tim K. Schramm,  N. Sergueev,  S. M. Sharada,
 Hengyuan Shen,  W. Skomorowski,  D. W. Small,  C. J. Stein,
 Alistair J. Sterling,  Yingli Su,  Yu-Chuan Su,  E. J. Sundstrom,
 J. Talbot,  Zhen Tao,  J. Thirman,  Hung-Yi Tsai,  T. Tsuchimochi,
 N. M. Tubman,  C. Utku,  S. P. Veccham,  O. Vydrov,  Rahel Weiss,
 J. Wenzel,  Jonathan Wong,  J. Witte,  H. Wu,  Yanze Wu,  A. Yamada,
 Chou-Hsun Yang,  Kun Yao,  S. Yeganeh,  S. R. Yost,  Qi Yu,  A. Zech,
 F. Zeller,  Chongxiao Zhao,  Igor Ying Zhang,  Xing Zhang,  Yu Zhang,
 D. Zuev,  A. Aspuru-Guzik,  A. T. Bell,  N. A. Besley,  K. B. Bravaya,
 B. R. Brooks,  D. Casanova,  Jeng-Da Chai,  Hsing-Ta Chen,  S. Coriani,
 C. J. Cramer,  A. E. DePrince, III,  R. A. DiStasio Jr.,  A. Dreuw,
 B. D. Dunietz,  T. R. Furlani,  W. A. Goddard III,  S. Grimme,
 S. Hammes-Schiffer,  T. Head-Gordon,  W. J. Hehre,  Chao-Ping Hsu,
 T.-C. Jagau,  Yousung Jung,  A. Klamt,  Jing Kong,  D. S. Lambrecht,
 Xiangyuan Li,  WanZhen Liang,  N. J. Mayhall,  C. W. McCurdy,  J. B. Neaton,
 T. Neudecker,  C. Ochsenfeld,  J. A. Parkhill,  R. Peverati,
 V. A. Rassolov,  Haisheng Ren,  Yihan Shao,  L. V. Slipchenko,
 R. P. Steele,  J. E. Subotnik,  A. J. W. Thom,  A. Tkatchenko,
 D. G. Truhlar,  T. Van Voorhis,  Fan Wang,  T. A. Wesolowski,  K. B. Whaley,
 H. L. Woodcock III,  P. M. Zimmerman,  S. Faraji,  P. M. W. Gill,
 M. Head-Gordon,  J. M. Herbert,  A. I. Krylov

 Contributors to earlier versions of Q-Chem not listed above:
 R. D. Adamson,  B. Austin,  R. Baer,  J. Baker,  G. J. O. Beran,
 K. Brandhorst,  S. T. Brown,  E. F. C. Byrd,  Arup K. Chakraborty,
 G. K. L. Chan,  Chun-Min Chang,  Yunqing Chen,  C.-L. Cheng,
 Siu Hung Chien,  D. M. Chipman,  D. L. Crittenden,  H. Dachsel,
 R. J. Doerksen,  A. D. Dutoi,  R. G. Edgar,  J. Fosso-Tande,
 L. Fusti-Molnar,  D. Ghosh,  A. Ghysels,  A. Golubeva-Zadorozhnaya,
 J. Gonthier,  M. S. Gordon,  S. R. Gwaltney,  G. Hawkins,  J. E. Herr,
 A. Heyden,  S. Hirata,  E. G. Hohenstein,  G. Kedziora,  F. J. Keil,
 C. Kelley,  Jihan Kim,  R. A. King,  R. Z. Khaliullin,  P. P. Korambath,
 W. Kurlancheek,  A. Laurent,  A. M. Lee,  M. S. Lee,  S. V. Levchenko,
 Ching Yeh Lin,  D. Liotard,  E. Livshits,  R. C. Lochan,  I. Lotan,
 L. A. Martinez-Martinez,  P. E. Maslen,  N. Nair,  D. P. O'Neill,
 D. Neuhauser,  E. Neuscamman,  C. M. Oana,  R. Olivares-Amaya,  R. Olson,
 T. M. Perrine,  B. Peters,  P. A. Pieniazek,  A. Prociuk,  Y. M. Rhee,
 J. Ritchie,  M. A. Rohrdanz,  E. Rosta,  N. J. Russ,  H. F. Schaefer III,
 M. W. Schmidt,  N. E. Schultz,  S. Sharma,  N. Shenvi,  C. D. Sherrill,
 A. C. Simmonett,  A. Sodt,  T. Stein,  D. Stuck,  K. S. Thanthiriwatte,
 V. Vanovschi,  L. Vogt,  Tao Wang,  A. Warshel,  M. A. Watson,
 C. F. Williams,  Q. Wu,  X. Xu,  Jun Yang,  W. Zhang,  Yan Zhao

   Please cite Q-Chem as follows:
  "Software for the frontiers of quantum chemistry:
   An overview of developments in the Q-Chem 5 package"
   J. Chem. Phys. 155, 084801 (2021)
   https://doi.org/10.1063/5.0055522 (open access)

 Q-Chem 6.2.0 for Intel X86 EM64T Linux

 Parts of Q-Chem use Armadillo 9.900.5 (Nocturnal Misbehaviour).
 http://arma.sourceforge.net/

 Q-Chem begins on Wed May 29 16:11:29 2024

 Host:
0

     Scratch files written to /data/scratch/cf3h_h2o_adiabatic_eda20240529161054//
 Processing $rem in /home/ymao/my_qchem/qchem_ymao_quick_fix/config/preferences:
 Processing $rem in /home/ymao/.qchemrc:
 The previous job contains 2 fragments; simply inherited here

 Checking the input file for inconsistencies... 	...done.

--------------------------------------------------------------
User input:
--------------------------------------------------------------

$molecule
read
$end

$rem
JOBTYPE  FREQ
GEN_SCFMAN  TRUE
METHOD  WB97X-V
BASIS  DEF2-SVPD
UNRESTRICTED  FALSE
MAX_SCF_CYCLES  2000
THRESH  14
SCF_CONVERGENCE  9
MEM_TOTAL  8000
MEM_STATIC  2000
SCF_GUESS  FRAGMO
SYMMETRY  FALSE
SYM_IGNORE  FALSE
SCF_ALGORITHM  DIIS
BASIS_LIN_DEP_THRESH  6
IDERIV  1
XC_GRID  000075000302
NL_GRID  1
FD_MAT_VEC_PROD  FALSE
GEOM_OPT_TOL_GRADIENT  50
GEOM_OPT_TOL_DISPLACEMENT  50
GEOM_OPT_TOL_ENERGY  10
GEOM_OPT_DRIVER  OPTIMIZE
GEOM_OPT_MAX_CYCLES  200
$end

--------------------------------------------------------------

   13    -414.2523270600      1.29e-10  Convergence criterion met
 Total energy =  -414.25232706
    9    -414.2523262389      4.16e-10  Convergence criterion met
 Total energy =  -414.25232624
    9    -414.2523262155      8.30e-10  Convergence criterion met
 Total energy =  -414.25232622
    9    -414.2523270385      8.12e-10  Convergence criterion met
 Total energy =  -414.25232704
    9    -414.2523270657      3.32e-10  Convergence criterion met
 Total energy =  -414.25232707
 Frequency:       -11.25                  36.44                  38.01
 Force Cnst:      0.0003                 0.0046                 0.0010
 Red. Mass:       3.4533                 5.9058                 1.1214
 IR Intens:        1.122                  2.029                  0.128
 Frequency:       113.48                 176.01                 193.29
 Force Cnst:      0.0514                 0.0218                 0.0273
 Red. Mass:       6.7713                 1.1949                 1.2421
 IR Intens:        1.102                 67.770                240.527
 Frequency:       507.40                 507.73                 698.21
 Force Cnst:      2.1213                 2.1285                 3.8539
 Red. Mass:      13.9850                14.0139                13.4177
 IR Intens:        2.725                  2.441                 21.037
 Frequency:      1141.11                1158.93                1159.39
 Force Cnst:      6.2660                 4.7060                 4.8443
 Red. Mass:       8.1675                 5.9469                 6.1167
 IR Intens:      135.250                306.825                306.151
 Frequency:      1408.21                1415.05                1602.57
 Force Cnst:      1.4061                 1.4104                 1.6405
 Red. Mass:       1.2034                 1.1955                 1.0841
 IR Intens:       41.511                 40.777                 80.763
 Frequency:      3195.06                3873.25                3977.51
 Force Cnst:      6.5884                 9.2363                10.0917
 Red. Mass:       1.0954                 1.0450                 1.0827
 IR Intens:        8.757                 17.733                 96.366
 Q-Chem 6.2 (devel), Q-Chem, Inc., Pleasanton, CA (2024)
 Q-Chem 6.2.0 for Intel X86 EM64T Linux
 Q-Chem 6.2 (devel), Q-Chem, Inc., Pleasanton, CA (2024)
 Q-Chem 6.2.0 for Intel X86 EM64T Linux

                    Orbital Energies (a.u.)
 --------------------------------------------------------------

 Alpha MOs
 -- Occupied --
-24.8066 -24.8063 -24.8063 -19.2575 -10.5302  -1.4312  -1.3380  -1.3378
 -1.1534  -0.8327  -0.7230  -0.7086  -0.7084  -0.6711  -0.5855  -0.5855
 -0.5471  -0.5470  -0.5359  -0.5250  -0.4945  -0.4534

 Frequency:       -12.23                  13.23                  25.61
 Force Cnst:      0.0004                 0.0006                 0.0004
 Red. Mass:       4.5351                 5.5594                 1.0455
 IR Intens:        0.798                  2.886                  0.496
 Frequency:        89.95                 124.49                 151.64
 Force Cnst:      0.0324                 0.0115                 0.0161
 Red. Mass:       6.8054                 1.2556                 1.1863
 IR Intens:        0.495                236.643                 70.656
 Frequency:       507.49                 507.70                 699.17
 Force Cnst:      2.1097                 2.1144                 3.8808
 Red. Mass:      13.9033                13.9226                13.4744
 IR Intens:        2.486                  2.451                 18.666
 Frequency:      1144.96                1161.39                1161.74
 Force Cnst:      6.4054                 4.4493                 4.5721
 Red. Mass:       8.2930                 5.5987                 5.7497
 IR Intens:      122.654                302.210                303.047
 Frequency:      1395.53                1401.62                1595.93
 Force Cnst:      1.4027                 1.4051                 1.6250
 Red. Mass:       1.2225                 1.2139                 1.0829
 IR Intens:       45.644                 43.542                 82.908
 Frequency:      3215.85                3873.68                3976.58
 Force Cnst:      6.6594                 9.2417                10.0860
 Red. Mass:       1.0929                 1.0453                 1.0825
 IR Intens:        0.020                 15.810                 92.761
 Q-Chem 6.2 (devel), Q-Chem, Inc., Pleasanton, CA (2024)
 Q-Chem 6.2.0 for Intel X86 EM64T Linux
        *  Thank you very much for using Q-Chem.  Have a nice day.  *
 Q-Chem 6.2 (devel), Q-Chem, Inc., Pleasanton, CA (2024)
 Q-Chem 6.2.0 for Intel X86 EM64T Linux
 Total energy in the final basis set =     -414.2496223393
 Total energy in the final basis set =     -414.2496228634
 Total energy in the final basis set =     -414.2496227505
 Total energy in the final basis set =     -414.2496228078
 Total energy in the final basis set =     -414.2496235085
 Total energy in the final basis set =     -414.2496235066
 Total energy in the final basis set =     -414.2496230643
 Total energy in the final basis set =     -414.2496230754
 Total energy in the final basis set =     -414.2496235760
 Total energy in the final basis set =     -414.2496235331
 Total energy in the final basis set =     -414.2496235318
 Total energy in the final basis set =     -414.2496234364
 Total energy in the final basis set =     -414.2496234388
 Total energy in the final basis set =     -414.2496231872
 Total energy in the final basis set =     -414.2496231820

          Ground-State Mulliken Net Atomic Charges

     Atom                 Charge (a.u.)
  ----------------------------------------
      1 O                    -0.266897
      2 H                     0.133448
      3 H                     0.133448
      4 H                    -0.234829
      5 C                     1.389075
      6 F                    -0.384787
      7 F                    -0.384399
      8 F                    -0.385060
  ----------------------------------------
  Sum of atomic charges =     0.000000

                    Cartesian Multipole Moments
 -----------------------------------------------------------------
    Charge (ESU x 10^10)
                 0.0000
    Dipole Moment (Debye)
         X       3.6046      Y       0.0165      Z       0.0037
       Tot       3.6046
    Quadrupole Moments (Debye-Ang)
        XX     -16.8229     XY       0.2045     YY     -30.4453
        XZ      -0.0034     YZ       0.0023     ZZ     -27.1061

             Standard Nuclear Orientation (Angstroms)
    I     Atom           X                Y                Z
 ----------------------------------------------------------------
    1      O       2.9811249561    -0.0235947167    -0.0000000000
    2      H       3.5641757585     0.0021646114    -0.7656479119
    3      H       3.5641757585     0.0021646114     0.7656479119
    4      H       0.5301285432    -0.0511087522    -0.0000000000
    5      C      -0.5664402709    -0.0083480312    -0.0000000000
    6      F      -1.0909424993    -1.2419865142    -0.0000000000
    7      F      -1.0161308661     0.6368613377     1.0858523830
    8      F      -1.0161308661     0.6368613377    -1.0858523830
 ----------------------------------------------------------------

 Frequency:       -16.18                  -5.46                  23.69
 Force Cnst:      0.0008                 0.0001                 0.0003
 Red. Mass:       5.1704                 5.5749                 1.0237
 IR Intens:        0.610                  2.467                  0.535
 Frequency:        84.42                 114.26                 143.39
 Force Cnst:      0.0286                 0.0096                 0.0142
 Red. Mass:       6.8144                 1.2542                 1.1759
 IR Intens:        0.021                245.750                 81.641
 Frequency:       507.68                 507.83                 700.00
 Force Cnst:      2.1068                 2.1100                 3.8979
 Red. Mass:      13.8737                13.8870                13.5015
 IR Intens:        2.680                  2.706                 14.341
 Frequency:      1147.83                1163.46                1163.76
 Force Cnst:      6.4713                 4.3728                 4.4737
 Red. Mass:       8.3365                 5.4829                 5.6065
 IR Intens:       96.457                309.169                311.129
 Frequency:      1391.59                1396.44                1595.87
 Force Cnst:      1.4023                 1.4037                 1.6247
 Red. Mass:       1.2291                 1.2217                 1.0827
 IR Intens:       45.548                 43.028                 82.301
 Frequency:      3217.49                3873.98                3977.58
 Force Cnst:      6.6605                 9.2429                10.0911
 Red. Mass:       1.0920                 1.0453                 1.0826
 IR Intens:       16.721                  8.467                 78.912

 STANDARD THERMODYNAMIC QUANTITIES AT   298.15 K  AND     1.00 ATM

   This Molecule has  2 Imaginary Frequencies
   Zero point vibrational energy:       30.034 kcal/mol

   Atom    1 Element O  Has Mass   15.99491
   Atom    2 Element H  Has Mass    1.00783
   Atom    3 Element H  Has Mass    1.00783
   Atom    4 Element H  Has Mass    1.00783
   Atom    5 Element C  Has Mass   12.00000
   Atom    6 Element F  Has Mass   18.99840
   Atom    7 Element F  Has Mass   18.99840
   Atom    8 Element F  Has Mass   18.99840
   Molecular Mass:    88.013600 amu
   Principal axes and moments of inertia in amu*Bohr^2:
                             1           2           3
    Eigenvalues --      323.93774   989.72674   994.20344
          X              -1.00000     0.00000     0.00044
          Y              -0.00044     0.00000    -1.00000
          Z              -0.00000     1.00000     0.00000
   Rotational Symmetry Number is   1
   The Molecule is an Asymmetric Top
   Translational Enthalpy:        0.889 kcal/mol
   Rotational Enthalpy:           0.889 kcal/mol
   Vibrational Enthalpy:         32.322 kcal/mol
   gas constant (RT):             0.592 kcal/mol
   Translational Entropy:        39.337  cal/mol.K
   Rotational Entropy:           27.258  cal/mol.K
   Vibrational Entropy:          17.813  cal/mol.K

   Total Enthalpy:               34.692 kcal/mol
   Total Entropy:                84.408  cal/mol.K

 Total job time:  866.54s(wall), 1565.53s(cpu)
        *  Thank you very much for using Q-Chem.  Have a nice day.  *
