 Q-Chem 6.0, Q-Chem, Inc., Pleasanton, CA (2022)
 Q-Chem 6.0.2 for Intel X86 EM64T Linux

User input:
--------------------------------------------------------------
$molecule
1 1
--
0 1
C    1.78663    0.00000    2.04933
Si   -0.00001   -0.00004   1.51826
C    -0.89319   -1.54730   2.04960
C    -0.89328   1.54715    2.04967
H    -0.00019   -0.00001   0.00505
H    2.31537    -0.88302   1.69382
H    2.31534    0.88302    1.69378
H    1.84726    0.00003    3.13750
H    -1.92240   1.56358    1.69425
H    -0.39297   2.44661    1.69422
H    -0.92348   1.59948    3.13785
H    -1.92237   -1.56369   1.69433
H    -0.39293   -2.44671   1.69396
H    -0.92323   -1.59978   3.13778
--
1 1
K    -0.00006   0.00005    -2.59410
$end

$rem
JOBTYPE  OPT
GEN_SCFMAN  TRUE
METHOD  WB97X-V
BASIS  DEF2-SVPD
UNRESTRICTED  FALSE
MAX_SCF_CYCLES  2000
THRESH  14
SCF_CONVERGENCE  9
MEM_TOTAL  8000
MEM_STATIC  2000
SCF_GUESS  FRAGMO
SYMMETRY  FALSE
SYM_IGNORE  FALSE
SCF_ALGORITHM  DIIS
BASIS_LIN_DEP_THRESH  6
IDERIV  1
XC_GRID  000075000302
NL_GRID  1
FD_MAT_VEC_PROD  FALSE
GEOM_OPT_TOL_GRADIENT  50
GEOM_OPT_TOL_DISPLACEMENT  50
GEOM_OPT_TOL_ENERGY  10
GEOM_OPT_DRIVER  OPTIMIZE
GEOM_OPT_MAX_CYCLES  200
$end

--------------------------------------------------------------

   11   -1009.2157051400      4.28e-10  Convergence criterion met
 Total energy in the final basis set =    -1009.2157051400
   10   -1009.2170782188      5.24e-10  Convergence criterion met
 Total energy in the final basis set =    -1009.2170782188
    9   -1009.2171740941      4.93e-10  Convergence criterion met
 Total energy in the final basis set =    -1009.2171740941
    9   -1009.2172036105      5.31e-10  Convergence criterion met
 Total energy in the final basis set =    -1009.2172036105
    7   -1009.2172044886      8.68e-10  Convergence criterion met
 Total energy in the final basis set =    -1009.2172044886
    7   -1009.2172045295      4.21e-10  Convergence criterion met
 Total energy in the final basis set =    -1009.2172045295
 Final energy is   -1009.21720452952
 **  OPTIMIZATION CONVERGED  **
 Total job time:  106.54s(wall), 2265.15s(cpu)
        *  Thank you very much for using Q-Chem.  Have a nice day.  *
 Q-Chem 6.0, Q-Chem, Inc., Pleasanton, CA (2022)
 Q-Chem 6.0.2 for Intel X86 EM64T Linux

User input:
--------------------------------------------------------------

$molecule
read
$end

$rem
JOBTYPE  FREQ
GEN_SCFMAN  TRUE
METHOD  WB97X-V
BASIS  DEF2-SVPD
UNRESTRICTED  FALSE
MAX_SCF_CYCLES  2000
THRESH  14
SCF_CONVERGENCE  9
MEM_TOTAL  8000
MEM_STATIC  2000
SCF_GUESS  FRAGMO
SYMMETRY  FALSE
SYM_IGNORE  FALSE
SCF_ALGORITHM  DIIS
BASIS_LIN_DEP_THRESH  6
IDERIV  1
XC_GRID  000075000302
NL_GRID  1
FD_MAT_VEC_PROD  FALSE
GEOM_OPT_TOL_GRADIENT  50
GEOM_OPT_TOL_DISPLACEMENT  50
GEOM_OPT_TOL_ENERGY  10
GEOM_OPT_DRIVER  OPTIMIZE
GEOM_OPT_MAX_CYCLES  200
$end

--------------------------------------------------------------

   11   -1009.2172046423      4.78e-10  Convergence criterion met
 Total energy in the final basis set =    -1009.2172046423
 Frequency:        14.62                  16.37                 106.30
 Force Cnst:      0.0004                 0.0005                 0.0585
 Red. Mass:       3.0254                 3.0411                 8.7895
 IR Intens:        3.354                  3.367                 21.418
 Frequency:       128.86                 159.94                 164.36
 Force Cnst:      0.0099                 0.0158                 0.0167
 Red. Mass:       1.0104                 1.0494                 1.0490
 IR Intens:        0.000                  0.000                  0.000
 Frequency:       199.11                 200.54                 248.05
 Force Cnst:      0.0517                 0.0520                 0.0903
 Red. Mass:       2.2118                 2.1938                 2.4919
 IR Intens:        0.585                  0.585                  0.047
 Frequency:       593.30                 593.71                 628.77
 Force Cnst:      0.2206                 0.2208                 0.7720
 Red. Mass:       1.0637                 1.0632                 3.3142
 IR Intens:       14.842                 14.864                  1.233
 Frequency:       670.52                 728.45                 728.61
 Force Cnst:      0.3101                 0.8183                 0.8180
 Red. Mass:       1.1708                 2.6175                 2.6152
 IR Intens:        0.000                  2.721                  2.701
 Frequency:       839.21                 839.34                 855.28
 Force Cnst:      0.5655                 0.5651                 0.6887
 Red. Mass:       1.3628                 1.3615                 1.5979
 IR Intens:        4.919                  4.788                 90.359
 Frequency:       904.04                 904.14                1281.34
 Force Cnst:      0.6937                 0.6935                 1.2379
 Red. Mass:       1.4406                 1.4399                 1.2797
 IR Intens:      177.055                176.957                 42.910
 Frequency:      1281.62                1289.04                1422.63
 Force Cnst:      1.2383                 1.2154                 1.2533
 Red. Mass:       1.2795                 1.2415                 1.0511
 IR Intens:       42.960                  4.286                  0.000
 Frequency:      1422.80                1423.11                1434.96
 Force Cnst:      1.2508                 1.2517                 1.2678
 Red. Mass:       1.0487                 1.0490                 1.0450
 IR Intens:        0.008                  0.009                  5.185
 Frequency:      1435.24                1440.16                2091.87
 Force Cnst:      1.2683                 1.2749                 2.6590
 Red. Mass:       1.0450                 1.0433                 1.0313
 IR Intens:        5.160                 10.383                616.352
 Frequency:      3050.96                3051.42                3051.56
 Force Cnst:      5.6901                 5.6923                 5.6928
 Red. Mass:       1.0375                 1.0376                 1.0376
 IR Intens:        0.884                  0.604                  0.594
 Frequency:      3143.42                3143.59                3144.78
 Force Cnst:      6.4106                 6.4112                 6.4126
 Red. Mass:       1.1011                 1.1011                 1.1005
 IR Intens:        1.175                  1.191                  4.924
 Frequency:      3147.86                3148.42                3148.56
 Force Cnst:      6.4348                 6.4374                 6.4380
 Red. Mass:       1.1022                 1.1022                 1.1022
 IR Intens:        0.305                  6.829                  7.101
 Q-Chem 6.0, Q-Chem, Inc., Pleasanton, CA (2022)
 Q-Chem 6.0.2 for Intel X86 EM64T Linux

User input:
--------------------------------------------------------------

$molecule
read
$end

$rem
JOBTYPE  OPT
GEN_SCFMAN  TRUE
POL_GEOM  TRUE
METHOD  WB97X-V
BASIS  DEF2-SVPD
UNRESTRICTED  FALSE
MAX_SCF_CYCLES  2000
THRESH  14
SCF_CONVERGENCE  9
MEM_TOTAL  8000
MEM_STATIC  2000
SCF_GUESS  FRAGMO
SYMMETRY  FALSE
SYM_IGNORE  FALSE
SCF_ALGORITHM  DIIS
BASIS_LIN_DEP_THRESH  6
IDERIV  1
SCFMI_MODE  0
XC_GRID  000075000302
NL_GRID  1
FD_MAT_VEC_PROD  FALSE
GEOM_OPT_TOL_GRADIENT  50
GEOM_OPT_TOL_DISPLACEMENT  50
GEOM_OPT_TOL_ENERGY  10
GEOM_OPT_DRIVER  OPTIMIZE
GEOM_OPT_MAX_CYCLES  200
$end

--------------------------------------------------------------

 Q-Chem 6.0, Q-Chem, Inc., Pleasanton, CA (2022)
 Q-Chem 6.0.2 for Intel X86 EM64T Linux

                    Orbital Energies (a.u.)
 --------------------------------------------------------------

 Alpha MOs
 -- Occupied --
******** -66.2485 -13.5091 -10.8478 -10.8478 -10.8475 -10.3766 -10.3766
-10.3765  -5.5031  -3.8587  -3.8558  -3.8558  -1.7134  -1.0646  -1.0646
 -1.0632  -0.9540  -0.9118  -0.9118  -0.7166  -0.6415  -0.6285  -0.6285
 -0.6057  -0.6057  -0.5972  -0.5396  -0.5218  -0.5218

 Frequency:        15.89                  17.99                 101.39
 Force Cnst:      0.0004                 0.0006                 0.0550
 Red. Mass:       3.0098                 3.0157                 9.0839
 IR Intens:        3.349                  3.362                 21.833
 Frequency:       129.40                 158.84                 162.49
 Force Cnst:      0.0100                 0.0157                 0.0163
 Red. Mass:       1.0106                 1.0540                 1.0460
 IR Intens:        0.000                  0.000                  0.001
 Frequency:       198.43                 199.46                 246.65
 Force Cnst:      0.0514                 0.0512                 0.0884
 Red. Mass:       2.2140                 2.1855                 2.4665
 IR Intens:        0.577                  0.578                  0.067
 Frequency:       593.65                 594.21                 628.54
 Force Cnst:      0.2208                 0.2212                 0.7702
 Red. Mass:       1.0636                 1.0632                 3.3089
 IR Intens:       14.832                 14.872                  1.211
 Frequency:       669.76                 727.77                 728.25
 Force Cnst:      0.3094                 0.8181                 0.8182
 Red. Mass:       1.1708                 2.6216                 2.6186
 IR Intens:        0.000                  2.869                  2.844
 Frequency:       839.23                 839.33                 855.88
 Force Cnst:      0.5670                 0.5667                 0.6899
 Red. Mass:       1.3663                 1.3654                 1.5986
 IR Intens:        5.101                  5.093                 87.630
 Frequency:       904.73                 904.75                1281.60
 Force Cnst:      0.6921                 0.6924                 1.2389
 Red. Mass:       1.4351                 1.4356                 1.2802
 IR Intens:      176.727                176.740                 43.096
 Frequency:      1281.95                1289.25                1422.76
 Force Cnst:      1.2395                 1.2160                 1.2531
 Red. Mass:       1.2801                 1.2417                 1.0507
 IR Intens:       42.999                  4.385                  0.008
 Frequency:      1422.88                1423.12                1434.96
 Force Cnst:      1.2513                 1.2518                 1.2680
 Red. Mass:       1.0490                 1.0491                 1.0452
 IR Intens:        0.011                  0.011                  5.125
 Frequency:      1435.41                1440.03                2088.72
 Force Cnst:      1.2687                 1.2745                 2.6524
 Red. Mass:       1.0451                 1.0432                 1.0319
 IR Intens:        5.096                 10.512                593.388
 Frequency:      3051.20                3051.76                3051.81
 Force Cnst:      5.6909                 5.6935                 5.6937
 Red. Mass:       1.0375                 1.0376                 1.0376
 IR Intens:        0.884                  0.683                  0.688
 Frequency:      3144.00                3144.11                3145.33
 Force Cnst:      6.4133                 6.4136                 6.4152
 Red. Mass:       1.1012                 1.1012                 1.1006
 IR Intens:        1.091                  1.201                  5.343
 Frequency:      3147.63                3148.16                3148.23
 Force Cnst:      6.4337                 6.4360                 6.4362
 Red. Mass:       1.1021                 1.1022                 1.1022
 IR Intens:        0.009                  7.434                  7.574
 Q-Chem 6.0, Q-Chem, Inc., Pleasanton, CA (2022)
 Q-Chem 6.0.2 for Intel X86 EM64T Linux
        *  Thank you very much for using Q-Chem.  Have a nice day.  *
 Q-Chem 6.0, Q-Chem, Inc., Pleasanton, CA (2022)
 Q-Chem 6.0.2 for Intel X86 EM64T Linux
 Total energy in the final basis set =    -1009.2065529087
 Total energy in the final basis set =    -1009.2065524184
 Total energy in the final basis set =    -1009.2065524295
 Total energy in the final basis set =    -1009.2065523461
 Total energy in the final basis set =    -1009.2065523855
 Total energy in the final basis set =    -1009.2065529189
 Total energy in the final basis set =    -1009.2065528985
 Total energy in the final basis set =    -1009.2065528978
 Total energy in the final basis set =    -1009.2065529148
 Total energy in the final basis set =    -1009.2065529728
 Total energy in the final basis set =    -1009.2065529687
 Total energy in the final basis set =    -1009.2065529794
 Total energy in the final basis set =    -1009.2065529779
 Total energy in the final basis set =    -1009.2065529785
 Total energy in the final basis set =    -1009.2065529787

          Ground-State Mulliken Net Atomic Charges

     Atom                 Charge (a.u.)
  ----------------------------------------
      1 C                     0.078319
      2 Si                   -0.306706
      3 C                     0.078356
      4 C                     0.078520
      5 H                     0.301647
      6 H                    -0.028882
      7 H                    -0.028253
      8 H                    -0.019601
      9 H                    -0.028789
     10 H                    -0.028712
     11 H                    -0.019273
     12 H                    -0.028461
     13 H                    -0.028780
     14 H                    -0.019385
     15 K                     1.000000
  ----------------------------------------
  Sum of atomic charges =     1.000000

                    Cartesian Multipole Moments
 -----------------------------------------------------------------
    Charge (ESU x 10^10)
                 4.8032
    Dipole Moment (Debye)
         X      14.6715      Y       0.0006      Z      -0.0054
       Tot      14.6715
    Quadrupole Moments (Debye-Ang)
        XX       5.7521     XY       0.0024     YY     -44.4431
        XZ      -0.0161     YZ       0.0002     ZZ     -44.4431

             Standard Nuclear Orientation (Angstroms)
    I     Atom           X                Y                Z
 ----------------------------------------------------------------
    1      C      -1.6558155907    -1.5529125427    -0.9041257703
    2      Si     -1.1158072597     0.0000701584    -0.0002686713
    3      C      -1.6569398547     1.5596616352    -0.8919427954
    4      C      -1.6555394580    -0.0071903955     1.7966535621
    5      H       0.4063384829     0.0004990432    -0.0008488180
    6      H      -1.2966600433    -1.5686978871    -1.9455195187
    7      H      -1.2954288589    -2.4656364902    -0.4033024281
    8      H      -2.7556537282    -1.6104498591    -0.9366585217
    9      H      -1.2969069760     0.8832805616     2.3372037410
   10      H      -1.2948828789    -0.9008227408     2.3306106215
   11      H      -2.7553885925    -0.0086603026     1.8624203951
   12      H      -1.2983979432     2.4688968601    -0.3835036053
   13      H      -1.2967644283     1.5841592739    -1.9328066708
   14      H      -2.7568225760     1.6157910999    -0.9250947672
   15      K       3.2142967683     0.0001740022    -0.0001183689
 ----------------------------------------------------------------

 Frequency:        23.38                  24.86                  64.70
 Force Cnst:      0.0010                 0.0011                 0.0265
 Red. Mass:       2.9799                 2.9916                10.7258
 IR Intens:        3.831                  3.825                 16.684
 Frequency:       133.67                 163.42                 163.94
 Force Cnst:      0.0106                 0.0165                 0.0165
 Red. Mass:       1.0107                 1.0518                 1.0436
 IR Intens:        0.000                  0.001                  0.006
 Frequency:       199.16                 200.27                 242.76
 Force Cnst:      0.0519                 0.0515                 0.0818
 Red. Mass:       2.2204                 2.1813                 2.3563
 IR Intens:        0.859                  0.861                  0.857
 Frequency:       597.30                 597.38                 629.95
 Force Cnst:      0.2240                 0.2241                 0.7661
 Red. Mass:       1.0658                 1.0658                 3.2766
 IR Intens:        9.763                  9.753                  1.793
 Frequency:       668.86                 727.22                 727.46
 Force Cnst:      0.3086                 0.8218                 0.8231
 Red. Mass:       1.1707                 2.6376                 2.6400
 IR Intens:        0.000                  6.250                  6.256
 Frequency:       840.65                 840.78                 857.67
 Force Cnst:      0.5798                 0.5804                 0.6939
 Red. Mass:       1.3926                 1.3934                 1.6011
 IR Intens:       10.789                 10.914                 71.087
 Frequency:       910.67                 910.82                1282.56
 Force Cnst:      0.6814                 0.6819                 1.2427
 Red. Mass:       1.3946                 1.3951                 1.2822
 IR Intens:      170.153                170.369                 43.619
 Frequency:      1282.63                1289.99                1424.53
 Force Cnst:      1.2427                 1.2195                 1.2538
 Red. Mass:       1.2821                 1.2438                 1.0487
 IR Intens:       43.734                  6.957                  0.070
 Frequency:      1424.88                1425.21                1437.07
 Force Cnst:      1.2559                 1.2569                 1.2720
 Red. Mass:       1.0499                 1.0502                 1.0454
 IR Intens:        0.063                  0.028                  3.272
 Frequency:      1437.33                1441.71                2105.61
 Force Cnst:      1.2723                 1.2775                 2.7029
 Red. Mass:       1.0453                 1.0432                 1.0347
 IR Intens:        3.240                 10.195                167.409
 Frequency:      3052.72                3053.43                3053.46
 Force Cnst:      5.6971                 5.7002                 5.7003
 Red. Mass:       1.0376                 1.0377                 1.0377
 IR Intens:        2.243                  5.246                  5.248
 Frequency:      3147.02                3147.22                3147.25
 Force Cnst:      6.4305                 6.4300                 6.4303
 Red. Mass:       1.1020                 1.1018                 1.1018
 IR Intens:        0.107                  3.584                  4.030
 Frequency:      3147.90                3147.95                3148.78
 Force Cnst:      6.4307                 6.4307                 6.4295
 Red. Mass:       1.1015                 1.1014                 1.1006
 IR Intens:        9.449                  8.827                 30.525

 STANDARD THERMODYNAMIC QUANTITIES AT   298.15 K  AND     1.00 ATM

   This Molecule has  0 Imaginary Frequencies
   Zero point vibrational energy:       74.512 kcal/mol

   Atom    1 Element C  Has Mass   12.00000
   Atom    2 Element Si Has Mass   27.97693
   Atom    3 Element C  Has Mass   12.00000
   Atom    4 Element C  Has Mass   12.00000
   Atom    5 Element H  Has Mass    1.00783
   Atom    6 Element H  Has Mass    1.00783
   Atom    7 Element H  Has Mass    1.00783
   Atom    8 Element H  Has Mass    1.00783
   Atom    9 Element H  Has Mass    1.00783
   Atom   10 Element H  Has Mass    1.00783
   Atom   11 Element H  Has Mass    1.00783
   Atom   12 Element H  Has Mass    1.00783
   Atom   13 Element H  Has Mass    1.00783
   Atom   14 Element H  Has Mass    1.00783
   Atom   15 Element K  Has Mass   38.96371
   Molecular Mass:   113.018940 amu
   Principal axes and moments of inertia in amu*Bohr^2:
                             1           2           3
    Eigenvalues --      587.31098  2316.03312  2316.22175
          X               1.00000    -0.00001    -0.00000
          Y               0.00001     1.00000     0.00219
          Z               0.00000    -0.00219     1.00000
   Rotational Symmetry Number is   1
   The Molecule is an Asymmetric Top
   Translational Enthalpy:        0.889 kcal/mol
   Rotational Enthalpy:           0.889 kcal/mol
   Vibrational Enthalpy:         79.087 kcal/mol
   gas constant (RT):             0.592 kcal/mol
   Translational Entropy:        40.083  cal/mol.K
   Rotational Entropy:           29.534  cal/mol.K
   Vibrational Entropy:          33.968  cal/mol.K

   Total Enthalpy:               81.457 kcal/mol
   Total Entropy:               103.585  cal/mol.K
 Total job time:  3863.01s(wall), 9294.48s(cpu)
        *  Thank you very much for using Q-Chem.  Have a nice day.  *
