 Q-Chem 6.1, Q-Chem, Inc., Pleasanton, CA (2023)
 Q-Chem 6.1.1 for Intel X86 EM64T Linux

User input:
--------------------------------------------------------------
$molecule
0 1
Si      0.0001887359     0.0003470093     0.3792872377
C       1.6089105553    -0.7747831455    -0.2261681341
C      -0.1335670331     1.7811480953    -0.2259729615
C      -1.4751140863    -1.0059887548    -0.2261190550
H      -0.0000730053     0.0001833530     1.8795843690
H       1.6465883081    -0.7926652860    -1.3280164316
H       1.7118689047    -1.8127188795     0.1290623992
H       2.4854917124    -0.2100096094     0.1298007917
H       0.7124399537     2.3904004142     0.1305541694
H      -1.0622887210     2.2557732021     0.1293871399
H      -0.1362961602     1.8230835411    -1.3277752674
H      -1.5101884129    -1.0301005447    -1.3279447130
H      -2.4254928100    -0.5769059247     0.1298384398
H      -1.4225627227    -2.0473462151     0.1300727985
$end

$rem
JOBTYPE  OPT
GEN_SCFMAN  TRUE
METHOD  WB97X-V
BASIS  DEF2-SVPD
UNRESTRICTED  FALSE
MAX_SCF_CYCLES  2000
THRESH  14
SCF_CONVERGENCE  9
MEM_TOTAL  8000
MEM_STATIC  2000
SYMMETRY  FALSE
SYM_IGNORE  FALSE
SCF_ALGORITHM  DIIS
BASIS_LIN_DEP_THRESH  6
IDERIV  1
XC_GRID  000075000302
NL_GRID  1
FD_MAT_VEC_PROD  FALSE
GEOM_OPT_TOL_GRADIENT  50
GEOM_OPT_TOL_DISPLACEMENT  50
GEOM_OPT_TOL_ENERGY  10
GEOM_OPT_DRIVER  OPTIMIZE
GEOM_OPT_MAX_CYCLES  200
$end

--------------------------------------------------------------

   13    -409.6082072699      1.58e-10  Convergence criterion met
 Total energy =  -409.60820727
    8    -409.6082075801      5.31e-10  Convergence criterion met
 Total energy =  -409.60820758
    8    -409.6082076775      4.90e-10  Convergence criterion met
 Total energy =  -409.60820768
 Final energy is   -409.608207677530
 **  OPTIMIZATION CONVERGED  **
 Total job time:  53.07s(wall), 842.90s(cpu)
        *  Thank you very much for using Q-Chem.  Have a nice day.  *
 Q-Chem 6.1, Q-Chem, Inc., Pleasanton, CA (2023)
 Q-Chem 6.1.1 for Intel X86 EM64T Linux

User input:
--------------------------------------------------------------

$molecule
read
$end

$rem
JOBTYPE  FREQ
GEN_SCFMAN  TRUE
METHOD  WB97X-V
BASIS  DEF2-SVPD
UNRESTRICTED  FALSE
MAX_SCF_CYCLES  2000
THRESH  14
SCF_CONVERGENCE  9
MEM_TOTAL  8000
MEM_STATIC  2000
SYMMETRY  FALSE
SYM_IGNORE  FALSE
SCF_ALGORITHM  DIIS
BASIS_LIN_DEP_THRESH  6
XC_GRID  000075000302
NL_GRID  1
FD_MAT_VEC_PROD  FALSE
GEOM_OPT_TOL_GRADIENT  50
GEOM_OPT_TOL_DISPLACEMENT  50
GEOM_OPT_TOL_ENERGY  10
GEOM_OPT_DRIVER  OPTIMIZE
GEOM_OPT_MAX_CYCLES  200
$end
--------------------------------------------------------------

             Standard Nuclear Orientation (Angstroms)
    I     Atom           X                Y                Z
 ----------------------------------------------------------------
    1      Si     -0.0001410711    -0.0002094124     0.3810990591
    2      C       1.3779693861    -1.1361301316    -0.2240526859
    3      C       0.2953159847     1.7612445997    -0.2239464420
    4      C      -1.6731120172    -0.6248458474    -0.2241625968
    5      H      -0.0002109117    -0.0002286959     1.8809786144
    6      H       1.4106415957    -1.1639877758    -1.3258538640
    7      H       1.2321905098    -2.1683520651     0.1329471001
    8      H       2.3634733669    -0.7948618959     0.1316470543
    9      H       1.2626425122     2.1501531036     0.1326873100
   10      H      -0.4922345654     2.4446906980     0.1322589200
   11      H       0.3026772976     1.8037232502    -1.3257689169
   12      H      -1.7134130708    -0.6396932216    -1.3259436109
   13      H      -2.4936041763     0.0184338017     0.1324335470
   14      H      -1.8712276846    -1.6485571495     0.1321973673
 ----------------------------------------------------------------

   13    -409.6081989029      1.53e-10  Convergence criterion met
 Total energy =  -409.60819890

                    Orbital Energies (a.u.)
 --------------------------------------------------------------

 Alpha MOs
 -- Occupied --
-66.1191 -10.2644 -10.2644 -10.2643  -5.3746  -3.7285  -3.7280  -3.7280
 -0.8391  -0.7990  -0.7990  -0.5921  -0.5280  -0.5155  -0.5155  -0.4958
 -0.4958  -0.4848  -0.4078  -0.4035  -0.4034

          Ground-State Mulliken Net Atomic Charges

     Atom                 Charge (a.u.)
  ----------------------------------------
      1 Si                   -0.284349
      2 C                     0.069779
      3 C                     0.069785
      4 C                     0.069727
      5 H                     0.306896
      6 H                    -0.017144
      7 H                    -0.030175
      8 H                    -0.029968
      9 H                    -0.030080
     10 H                    -0.030211
     11 H                    -0.017107
     12 H                    -0.017271
     13 H                    -0.029936
     14 H                    -0.029946
  ----------------------------------------
  Sum of atomic charges =     0.000000

                    Cartesian Multipole Moments
 -----------------------------------------------------------------
    Charge (ESU x 10^10)
                 0.0000
    Dipole Moment (Debye)
         X      -0.0004      Y      -0.0008      Z      -0.5547
       Tot       0.5547
    Quadrupole Moments (Debye-Ang)
        XX     -35.8626     XY      -0.0004     YY     -35.8644
        XZ       0.0001     YZ      -0.0000     ZZ     -36.9574

 Frequency:       126.69                 158.15                 159.43
 Force Cnst:      0.0096                 0.0155                 0.0157
 Red. Mass:       1.0114                 1.0487                 1.0456
 IR Intens:        0.000                  0.000                  0.001
 Frequency:       198.22                 199.21                 233.08
 Force Cnst:      0.0512                 0.0516                 0.0738
 Red. Mass:       2.2101                 2.2054                 2.3069
 IR Intens:        0.828                  0.831                  1.606
 Frequency:       602.30                 602.82                 626.59
 Force Cnst:      0.2284                 0.2287                 0.7504
 Red. Mass:       1.0684                 1.0680                 3.2441
 IR Intens:        7.805                  7.808                  1.548
 Frequency:       661.40                 714.56                 714.93
 Force Cnst:      0.3013                 0.8332                 0.8332
 Red. Mass:       1.1691                 2.7697                 2.7669
 IR Intens:        0.000                  9.119                  9.040
 Frequency:       837.27                 837.48                 859.84
 Force Cnst:      0.5927                 0.5920                 0.6883
 Red. Mass:       1.4350                 1.4326                 1.5802
 IR Intens:       19.882                 19.637                 64.726
 Frequency:       913.63                 913.73                1269.70
 Force Cnst:      0.6494                 0.6492                 1.2206
 Red. Mass:       1.3204                 1.3198                 1.2850
 IR Intens:      158.565                158.290                 42.433
 Frequency:      1270.59                1277.66                1424.91
 Force Cnst:      1.2224                 1.2025                 1.2588
 Red. Mass:       1.2852                 1.2502                 1.0523
 IR Intens:       42.693                  8.119                  0.001
 Frequency:      1427.62                1427.88                1437.02
 Force Cnst:      1.2603                 1.2609                 1.2733
 Red. Mass:       1.0495                 1.0496                 1.0465
 IR Intens:        0.011                  0.019                  3.425
 Frequency:      1437.21                1444.52                2208.64
 Force Cnst:      1.2735                 1.2834                 2.9885
 Red. Mass:       1.0464                 1.0439                 1.0398
 IR Intens:        3.415                 10.433                162.182
 Frequency:      3046.54                3046.76                3046.88
 Force Cnst:      5.6705                 5.6721                 5.6726
 Red. Mass:       1.0370                 1.0371                 1.0371
 IR Intens:        2.732                  5.282                  5.647
 Frequency:      3137.57                3137.80                3139.34
 Force Cnst:      6.3900                 6.3910                 6.3933
 Red. Mass:       1.1017                 1.1017                 1.1010
 IR Intens:        1.437                  1.527                 25.782
 Frequency:      3142.50                3143.22                3143.35
 Force Cnst:      6.4106                 6.4121                 6.4127
 Red. Mass:       1.1018                 1.1016                 1.1015
 IR Intens:        0.312                 15.013                 15.395

 STANDARD THERMODYNAMIC QUANTITIES AT   298.15 K  AND     1.00 ATM

   This Molecule has  0 Imaginary Frequencies
   Zero point vibrational energy:       74.293 kcal/mol

   Atom    1 Element Si Has Mass   27.97693
   Atom    2 Element C  Has Mass   12.00000
   Atom    3 Element C  Has Mass   12.00000
   Atom    4 Element C  Has Mass   12.00000
   Atom    5 Element H  Has Mass    1.00783
   Atom    6 Element H  Has Mass    1.00783
   Atom    7 Element H  Has Mass    1.00783
   Atom    8 Element H  Has Mass    1.00783
   Atom    9 Element H  Has Mass    1.00783
   Atom   10 Element H  Has Mass    1.00783
   Atom   11 Element H  Has Mass    1.00783
   Atom   12 Element H  Has Mass    1.00783
   Atom   13 Element H  Has Mass    1.00783
   Atom   14 Element H  Has Mass    1.00783
   Molecular Mass:    74.055230 amu
   Principal axes and moments of inertia in amu*Bohr^2:
                             1           2           3
    Eigenvalues --      343.13483   343.25729   580.43912
          X               1.00000     0.00144    -0.00000
          Y               0.00144    -1.00000    -0.00000
          Z               0.00000    -0.00000     1.00000
   Rotational Symmetry Number is   1
   The Molecule is an Asymmetric Top
   Translational Enthalpy:        0.889 kcal/mol
   Rotational Enthalpy:           0.889 kcal/mol
   Vibrational Enthalpy:         77.282 kcal/mol
   gas constant (RT):             0.592 kcal/mol
   Translational Entropy:        38.823  cal/mol.K
   Rotational Entropy:           25.728  cal/mol.K
   Vibrational Entropy:          17.471  cal/mol.K

   Total Enthalpy:               79.652 kcal/mol
   Total Entropy:                82.022  cal/mol.K

 Total job time:  662.77s(wall), 10537.23s(cpu)
        *  Thank you very much for using Q-Chem.  Have a nice day.  *
