 Q-Chem 6.0, Q-Chem, Inc., Pleasanton, CA (2022)
 Q-Chem 6.0.2 for Intel X86 EM64T Linux

User input:
--------------------------------------------------------------
$molecule
0 1
--
0 1
H    -0.02822   -0.14563   -0.03591
Si   -0.02665   -0.06263   1.45428
C    1.74862    -0.04594   2.03285
C    -0.90349   1.51043    1.95140
C    -0.93024   -1.55523   2.12226
H    2.27180    -0.94950   1.72553
H    1.79468    0.01420    3.11946
H    2.28721    0.80860    1.62757
H    -0.40634   2.38728    1.54027
H    -1.93555   1.51607    1.60429
H    -0.91750   1.61247    3.03592
H    -1.96271   -1.58126   1.77728
H    -0.44905   -2.48086   1.81125
H    -0.94459   -1.53608   3.21139
--
0 1
Br   -2.38811   -0.20122   -1.35781
C    -3.97333   -0.23477   -2.18027
N    -5.01455   -0.25665   -2.71773
$end

$rem
JOBTYPE  OPT
GEN_SCFMAN  TRUE
METHOD  WB97X-V
BASIS  DEF2-SVPD
UNRESTRICTED  FALSE
MAX_SCF_CYCLES  2000
THRESH  14
SCF_CONVERGENCE  9
MEM_TOTAL  8000
MEM_STATIC  2000
SCF_GUESS  FRAGMO
SYMMETRY  FALSE
SYM_IGNORE  FALSE
SCF_ALGORITHM  DIIS
BASIS_LIN_DEP_THRESH  6
IDERIV  1
XC_GRID  000075000302
NL_GRID  1
FD_MAT_VEC_PROD  FALSE
GEOM_OPT_TOL_GRADIENT  50
GEOM_OPT_TOL_DISPLACEMENT  50
GEOM_OPT_TOL_ENERGY  10
GEOM_OPT_DRIVER  OPTIMIZE
GEOM_OPT_MAX_CYCLES  200
$end

--------------------------------------------------------------

   13   -3075.9385318530      5.76e-10  Convergence criterion met
 Total energy in the final basis set =    -3075.9385318530
   13   -3075.9404101176      2.34e-10  Convergence criterion met
 Total energy in the final basis set =    -3075.9404101176
   12   -3075.9403038356      9.98e-10  Convergence criterion met
 Total energy in the final basis set =    -3075.9403038356
   12   -3075.9404374208      6.82e-10  Convergence criterion met
 Total energy in the final basis set =    -3075.9404374208
   11   -3075.9404462353      3.50e-10  Convergence criterion met
 Total energy in the final basis set =    -3075.9404462353
   12   -3075.9404636508      3.24e-10  Convergence criterion met
 Total energy in the final basis set =    -3075.9404636508
   11   -3075.9404675370      6.08e-10  Convergence criterion met
 Total energy in the final basis set =    -3075.9404675370
   12   -3075.9404694549      4.52e-10  Convergence criterion met
 **  OPTIMIZATION CONVERGED  **
 Total job time:  565.29s(wall), 13169.05s(cpu)
        *  Thank you very much for using Q-Chem.  Have a nice day.  *
 Q-Chem 6.0, Q-Chem, Inc., Pleasanton, CA (2022)
 Q-Chem 6.0.2 for Intel X86 EM64T Linux

User input:
--------------------------------------------------------------

$molecule
read
$end

$rem
JOBTYPE  FREQ
GEN_SCFMAN  TRUE
METHOD  WB97X-V
BASIS  DEF2-SVPD
UNRESTRICTED  FALSE
MAX_SCF_CYCLES  2000
THRESH  14
SCF_CONVERGENCE  9
MEM_TOTAL  8000
MEM_STATIC  2000
SCF_GUESS  FRAGMO
SYMMETRY  FALSE
SYM_IGNORE  FALSE
SCF_ALGORITHM  DIIS
BASIS_LIN_DEP_THRESH  6
IDERIV  1
XC_GRID  000075000302
NL_GRID  1
FD_MAT_VEC_PROD  FALSE
GEOM_OPT_TOL_GRADIENT  50
GEOM_OPT_TOL_DISPLACEMENT  50
GEOM_OPT_TOL_ENERGY  10
GEOM_OPT_DRIVER  OPTIMIZE
GEOM_OPT_MAX_CYCLES  200
$end

--------------------------------------------------------------

 Frequency:        27.03                  30.22                  48.41
 Force Cnst:      0.0019                 0.0037                 0.0065
 Red. Mass:       4.3387                 6.8108                 4.6943
 IR Intens:        1.015                  2.219                  1.428
 Frequency:        52.19                  68.71                 130.57
 Force Cnst:      0.0134                 0.0101                 0.0102
 Red. Mass:       8.3631                 3.6459                 1.0162
 IR Intens:        1.023                  0.596                  0.003
 Frequency:       159.40                 165.78                 201.34
 Force Cnst:      0.0156                 0.0170                 0.0535
 Red. Mass:       1.0411                 1.0480                 2.2394
 IR Intens:        0.000                  0.005                  0.753
 Frequency:       203.31                 236.10                 363.44
 Force Cnst:      0.0546                 0.0765                 0.9805
 Red. Mass:       2.2417                 2.3292                12.5981
 IR Intens:        0.631                  1.549                  3.743
 Frequency:       364.83                 606.16                 606.76
 Force Cnst:      0.9871                 0.2318                 2.1124
 Red. Mass:      12.5874                 1.0707                 9.7385
 IR Intens:        3.029                  7.149                  1.403
 Frequency:       623.62                 628.85                 667.42
 Force Cnst:      0.3224                 0.4941                 0.3066
 Red. Mass:       1.4071                 2.1205                 1.1684
 IR Intens:       10.600                  2.696                  0.008
 Frequency:       718.64                 721.58                 840.70
 Force Cnst:      0.8432                 0.8436                 0.5905
 Red. Mass:       2.7711                 2.7499                 1.4180
 IR Intens:        7.237                  6.456                 16.710
 Frequency:       843.04                 859.62                 914.58
 Force Cnst:      0.6164                 0.6875                 0.6535
 Red. Mass:       1.4721                 1.5790                 1.3260
 IR Intens:       23.586                 91.508                141.588
 Frequency:       933.54                1273.40                1273.53
 Force Cnst:      0.6449                 1.2249                 1.2269
 Red. Mass:       1.2559                 1.2821                 1.2840
 IR Intens:      196.995                 44.124                 39.441
 Frequency:      1281.29                1424.64                1427.55
 Force Cnst:      1.2062                 1.2578                 1.2604
 Red. Mass:       1.2470                 1.0518                 1.0498
 IR Intens:       10.871                  0.098                  0.058
 Frequency:      1428.12                1436.38                1436.75
 Force Cnst:      1.2611                 1.2716                 1.2722
 Red. Mass:       1.0494                 1.0461                 1.0461
 IR Intens:        0.316                  2.609                  3.182
 Frequency:      1444.42                2166.81                2381.63
 Force Cnst:      1.2833                 2.8734                42.5541
 Red. Mass:       1.0440                 1.0387                12.7333
 IR Intens:        9.770                276.704                 26.793
 Frequency:      3047.53                3047.79                3048.81
 Force Cnst:      5.6749                 5.6765                 5.6790
 Red. Mass:       1.0371                 1.0372                 1.0370
 IR Intens:        2.196                  3.755                  3.970
 Frequency:      3138.86                3139.59                3141.81
 Force Cnst:      6.3944                 6.3961                 6.4055
 Red. Mass:       1.1016                 1.1013                 1.1014
 IR Intens:        0.452                 11.416                 14.087
 Frequency:      3144.18                3144.60                3147.10
 Force Cnst:      6.4174                 6.4183                 6.4301
 Red. Mass:       1.1018                 1.1016                 1.1019
 IR Intens:        3.468                 13.319                  8.940
 Q-Chem 6.0, Q-Chem, Inc., Pleasanton, CA (2022)
 Q-Chem 6.0.2 for Intel X86 EM64T Linux

User input:
--------------------------------------------------------------

$molecule
read
$end

$rem
JOBTYPE  OPT
GEN_SCFMAN  TRUE
POL_GEOM  TRUE
METHOD  WB97X-V
BASIS  DEF2-SVPD
UNRESTRICTED  FALSE
MAX_SCF_CYCLES  2000
THRESH  14
SCF_CONVERGENCE  9
MEM_TOTAL  8000
MEM_STATIC  2000
SCF_GUESS  FRAGMO
SYMMETRY  FALSE
SYM_IGNORE  FALSE
SCF_ALGORITHM  DIIS
BASIS_LIN_DEP_THRESH  6
IDERIV  1
SCFMI_MODE  0
XC_GRID  000075000302
NL_GRID  1
FD_MAT_VEC_PROD  FALSE
GEOM_OPT_TOL_GRADIENT  50
GEOM_OPT_TOL_DISPLACEMENT  50
GEOM_OPT_TOL_ENERGY  10
GEOM_OPT_DRIVER  OPTIMIZE
GEOM_OPT_MAX_CYCLES  200
$end

--------------------------------------------------------------

 Q-Chem 6.0, Q-Chem, Inc., Pleasanton, CA (2022)
 Q-Chem 6.0.2 for Intel X86 EM64T Linux

                    Orbital Energies (a.u.)
 --------------------------------------------------------------

 Alpha MOs
 -- Occupied --
******** -66.1323 -62.5732 -56.3965 -56.3917 -56.3917 -14.4504 -10.3763
-10.2745 -10.2745 -10.2744  -8.8702  -6.7066  -6.6897  -6.6896  -5.3876
 -3.7419  -3.7410  -3.7409  -2.8278  -2.8229  -2.8229  -2.8097  -2.8097
 -1.0635  -0.9916  -0.8497  -0.8093  -0.8092  -0.6568  -0.6039  -0.5386
 -0.5288  -0.5263  -0.5247  -0.5224  -0.5057  -0.5056  -0.4982  -0.4949
 -0.4253  -0.4252  -0.4210  -0.4149  -0.4146

 Frequency:        20.74                  23.81                  36.46
 Force Cnst:      0.0021                 0.0015                 0.0035
 Red. Mass:       8.2605                 4.4916                 4.4136
 IR Intens:        2.553                  1.129                  1.456
 Frequency:        42.00                  57.68                 132.34
 Force Cnst:      0.0077                 0.0069                 0.0105
 Red. Mass:       7.3789                 3.5294                 1.0156
 IR Intens:        0.647                  0.273                  0.002
 Frequency:       160.38                 164.78                 200.30
 Force Cnst:      0.0157                 0.0168                 0.0528
 Red. Mass:       1.0344                 1.0475                 2.2333
 IR Intens:        0.005                  0.005                  0.759
 Frequency:       201.52                 234.01                 363.57
 Force Cnst:      0.0541                 0.0746                 0.9816
 Red. Mass:       2.2622                 2.3109                12.6047
 IR Intens:        0.729                  1.502                  2.724
 Frequency:       363.61                 604.36                 613.48
 Force Cnst:      0.9827                 0.2304                 3.1834
 Red. Mass:      12.6154                 1.0705                14.3562
 IR Intens:        3.367                  7.241                  0.072
 Frequency:       616.96                 627.32                 665.41
 Force Cnst:      0.2490                 0.7197                 0.3049
 Red. Mass:       1.1102                 3.1038                 1.1686
 IR Intens:        9.722                  1.219                  0.003
 Frequency:       717.84                 719.83                 839.76
 Force Cnst:      0.8411                 0.8399                 0.5944
 Red. Mass:       2.7703                 2.7512                 1.4306
 IR Intens:        7.430                  7.586                 18.552
 Frequency:       841.07                 859.05                 916.25
 Force Cnst:      0.6093                 0.6882                 0.6512
 Red. Mass:       1.4619                 1.5828                 1.3165
 IR Intens:       23.759                 79.726                143.381
 Frequency:       928.39                1272.71                1273.03
 Force Cnst:      0.6481                 1.2240                 1.2262
 Red. Mass:       1.2763                 1.2825                 1.2842
 IR Intens:      183.667                 43.659                 39.257
 Frequency:      1279.97                1425.37                1426.99
 Force Cnst:      1.2044                 1.2592                 1.2595
 Red. Mass:       1.2477                 1.0519                 1.0498
 IR Intens:       10.781                  0.092                  0.015
 Frequency:      1427.43                1437.15                1437.45
 Force Cnst:      1.2598                 1.2730                 1.2735
 Red. Mass:       1.0494                 1.0461                 1.0461
 IR Intens:        0.309                  2.665                  2.606
 Frequency:      1443.73                2181.38                2382.99
 Force Cnst:      1.2820                 2.9130                42.6564
 Red. Mass:       1.0439                 1.0390                12.7494
 IR Intens:        9.989                220.322                 29.239
 Frequency:      3047.35                3047.55                3048.65
 Force Cnst:      5.6743                 5.6757                 5.6790
 Red. Mass:       1.0371                 1.0372                 1.0371
 IR Intens:        2.273                  4.062                  4.061
 Frequency:      3138.58                3139.34                3141.11
 Force Cnst:      6.3936                 6.3956                 6.4018
 Red. Mass:       1.1016                 1.1014                 1.1013
 IR Intens:        0.410                  9.711                 16.911
 Frequency:      3143.41                3143.84                3145.92
 Force Cnst:      6.4140                 6.4149                 6.4243
 Red. Mass:       1.1017                 1.1016                 1.1017
 IR Intens:        3.208                 14.150                  9.908
 Q-Chem 6.0, Q-Chem, Inc., Pleasanton, CA (2022)
 Q-Chem 6.0.2 for Intel X86 EM64T Linux
        *  Thank you very much for using Q-Chem.  Have a nice day.  *
 Q-Chem 6.0, Q-Chem, Inc., Pleasanton, CA (2022)
 Q-Chem 6.0.2 for Intel X86 EM64T Linux
 Total energy in the final basis set =    -3075.9378661391
 Total energy in the final basis set =    -3075.9378660397
 Total energy in the final basis set =    -3075.9378660302
 Total energy in the final basis set =    -3075.9378638422
 Total energy in the final basis set =    -3075.9378638558
 Total energy in the final basis set =    -3075.9378660810
 Total energy in the final basis set =    -3075.9378660575
 Total energy in the final basis set =    -3075.9378655250
 Total energy in the final basis set =    -3075.9378655605
 Total energy in the final basis set =    -3075.9378642614
 Total energy in the final basis set =    -3075.9378642428
 Total energy in the final basis set =    -3075.9378661131
 Total energy in the final basis set =    -3075.9378661275
 Total energy in the final basis set =    -3075.9378656788
 Total energy in the final basis set =    -3075.9378656759

          Ground-State Mulliken Net Atomic Charges

     Atom                 Charge (a.u.)
  ----------------------------------------
      1 H                     0.304388
      2 Si                   -0.285546
      3 C                     0.070579
      4 C                     0.070432
      5 C                     0.070432
      6 H                    -0.028084
      7 H                    -0.019223
      8 H                    -0.028084
      9 H                    -0.029290
     10 H                    -0.030581
     11 H                    -0.017575
     12 H                    -0.030582
     13 H                    -0.029290
     14 H                    -0.017575
     15 Br                   -0.101783
     16 C                     0.184722
     17 N                    -0.082939
  ----------------------------------------
  Sum of atomic charges =     0.000000

                    Cartesian Multipole Moments
 -----------------------------------------------------------------
    Charge (ESU x 10^10)
                 0.0000
    Dipole Moment (Debye)
         X      -3.2603      Y      -0.0002      Z       0.9429
       Tot       3.3939
    Quadrupole Moments (Debye-Ang)
        XX     -81.2379     XY      -0.0012     YY     -64.8779
        XZ       5.5648     YZ       0.0002     ZZ     -65.9716

             Standard Nuclear Orientation (Angstroms)
    I     Atom           X                Y                Z
 ----------------------------------------------------------------
    1      H      -1.4111590995    -0.0000986663     1.2518221465
    2      Si     -2.3510813314     0.0000007964     0.0773092021
    3      C      -4.1154027908    -0.0000441440     0.7356655280
    4      C      -2.0226017578     1.5483829834    -0.9453411573
    5      C      -2.0226172330    -1.5482197345    -0.9455912782
    6      H      -4.3117627009    -0.8900618211     1.3547189147
    7      H      -4.8434915553     0.0000318025    -0.0922211907
    8      H      -4.3117511374     0.8898696641     1.3548718617
    9      H      -2.1785931475     2.4626413605    -0.3503562237
   10      H      -0.9894654818     1.5691526257    -1.3282960007
   11      H      -2.6998211779     1.5950876087    -1.8141237377
   12      H      -0.9894837734    -1.5689345703    -1.3285566308
   13      H      -2.1786104794    -2.4625724626    -0.3507518171
   14      H      -2.6998427451    -1.5947810982    -1.8143768220
   15      Br      1.6722763074    -0.0000602065     0.4730623355
   16      C       3.2832198595    -0.0000055098    -0.3111340701
   17      N       4.3234086731     0.0001542946    -0.8176907436
 ----------------------------------------------------------------

 Frequency:        16.24                  20.91                  31.04
 Force Cnst:      0.0013                 0.0010                 0.0027
 Red. Mass:       8.2174                 4.0155                 4.7742
 IR Intens:        2.532                  1.016                  2.002
 Frequency:        37.23                  56.47                 129.96
 Force Cnst:      0.0058                 0.0067                 0.0101
 Red. Mass:       7.0645                 3.5615                 1.0141
 IR Intens:        0.659                  0.104                  0.000
 Frequency:       159.14                 162.45                 199.65
 Force Cnst:      0.0155                 0.0163                 0.0524
 Red. Mass:       1.0390                 1.0460                 2.2309
 IR Intens:        0.003                  0.001                  0.849
 Frequency:       201.08                 233.27                 361.54
 Force Cnst:      0.0537                 0.0739                 0.9707
 Red. Mass:       2.2536                 2.3063                12.6044
 IR Intens:        0.931                  1.513                  2.692
 Frequency:       362.14                 602.97                 614.02
 Force Cnst:      0.9748                 0.2293                 2.9474
 Red. Mass:      12.6158                 1.0702                13.2687
 IR Intens:        2.820                  7.575                  1.094
 Frequency:       616.90                 627.19                 664.64
 Force Cnst:      0.2503                 0.7227                 0.3042
 Red. Mass:       1.1162                 3.1184                 1.1688
 IR Intens:        4.983                  1.703                  0.001
 Frequency:       717.28                 719.33                 838.98
 Force Cnst:      0.8384                 0.8393                 0.5932
 Red. Mass:       2.7659                 2.7530                 1.4303
 IR Intens:        8.970                  9.229                 19.305
 Frequency:       840.70                 859.34                 915.86
 Force Cnst:      0.6103                 0.6895                 0.6521
 Red. Mass:       1.4656                 1.5846                 1.3194
 IR Intens:       26.096                 65.576                160.237
 Frequency:       929.94                1272.07                1272.49
 Force Cnst:      0.6484                 1.2231                 1.2252
 Red. Mass:       1.2725                 1.2829                 1.2842
 IR Intens:      153.505                 42.671                 42.938
 Frequency:      1279.53                1425.13                1426.95
 Force Cnst:      1.2039                 1.2588                 1.2594
 Red. Mass:       1.2480                 1.0519                 1.0498
 IR Intens:        7.846                  0.000                  0.047
 Frequency:      1427.28                1436.98                1437.48
 Force Cnst:      1.2596                 1.2727                 1.2736
 Red. Mass:       1.0494                 1.0461                 1.0461
 IR Intens:        0.047                  3.354                  3.311
 Frequency:      1443.59                2186.20                2383.66
 Force Cnst:      1.2817                 2.9265                42.6800
 Red. Mass:       1.0439                 1.0392                12.7493
 IR Intens:       10.444                162.601                 24.093
 Frequency:      3047.24                3047.46                3048.41
 Force Cnst:      5.6739                 5.6754                 5.6781
 Red. Mass:       1.0371                 1.0372                 1.0371
 IR Intens:        3.147                  5.660                  4.750
 Frequency:      3138.39                3139.15                3140.83
 Force Cnst:      6.3928                 6.3949                 6.4005
 Red. Mass:       1.1016                 1.1014                 1.1012
 IR Intens:        0.708                  7.707                 20.002
 Frequency:      3143.19                3143.65                3145.46
 Force Cnst:      6.4131                 6.4141                 6.4222
 Red. Mass:       1.1017                 1.1016                 1.1017
 IR Intens:        3.305                 14.603                 11.940

 STANDARD THERMODYNAMIC QUANTITIES AT   298.15 K  AND     1.00 ATM

   This Molecule has  0 Imaginary Frequencies
   Zero point vibrational energy:       79.918 kcal/mol

   Atom    1 Element H  Has Mass    1.00783
   Atom    2 Element Si Has Mass   27.97693
   Atom    3 Element C  Has Mass   12.00000
   Atom    4 Element C  Has Mass   12.00000
   Atom    5 Element C  Has Mass   12.00000
   Atom    6 Element H  Has Mass    1.00783
   Atom    7 Element H  Has Mass    1.00783
   Atom    8 Element H  Has Mass    1.00783
   Atom    9 Element H  Has Mass    1.00783
   Atom   10 Element H  Has Mass    1.00783
   Atom   11 Element H  Has Mass    1.00783
   Atom   12 Element H  Has Mass    1.00783
   Atom   13 Element H  Has Mass    1.00783
   Atom   14 Element H  Has Mass    1.00783
   Atom   15 Element Br Has Mass   78.91830
   Atom   16 Element C  Has Mass   12.00000
   Atom   17 Element N  Has Mass   14.00307
   Molecular Mass:   178.976600 amu
   Principal axes and moments of inertia in amu*Bohr^2:
                             1           2           3
    Eigenvalues --      546.92635  4354.46671  4389.22270
          X               0.99999     0.00000    -0.00410
          Y              -0.00000     1.00000     0.00009
          Z               0.00410    -0.00009     0.99999
   Rotational Symmetry Number is   1
   The Molecule is an Asymmetric Top
   Translational Enthalpy:        0.889 kcal/mol
   Rotational Enthalpy:           0.889 kcal/mol
   Vibrational Enthalpy:         86.155 kcal/mol
   gas constant (RT):             0.592 kcal/mol
   Translational Entropy:        41.453  cal/mol.K
   Rotational Entropy:           30.725  cal/mol.K
   Vibrational Entropy:          49.279  cal/mol.K

   Total Enthalpy:               88.525 kcal/mol
   Total Entropy:               121.458  cal/mol.K
 Total job time:  5194.92s(wall), 16501.33s(cpu)
        *  Thank you very much for using Q-Chem.  Have a nice day.  *
