 Q-Chem 6.0, Q-Chem, Inc., Pleasanton, CA (2022)
 Q-Chem 6.0.2 for Intel X86 EM64T Linux

User input:
--------------------------------------------------------------
$molecule
0 1
--
0 1
H    0.00274    -0.00385   0.00926
Si   0.00019    0.00041    1.49851
C    1.76792    0.00166    2.10231
H    2.28965    -0.89716   1.77821
H    2.31469    0.86722    1.73198
H    1.79630    0.03064    3.19101
C    -0.88646   1.54533    2.07103
H    -0.38688   2.44353    1.71221
H    -0.91226   1.59009    3.15911
H    -1.91394   1.56720    1.71203
C    -0.89282   -1.52530   2.10200
H    -0.93241   -1.53527   3.19069
H    -1.91590   -1.56071   1.73136
H    -0.37986   -2.42916   1.77795
--
0 1
N    1.77317    -3.08704   -0.00366
C    1.40242    -2.44152   -0.89768
H    1.05883    -1.84327   -1.70845
$end

$rem
JOBTYPE  OPT
GEN_SCFMAN  TRUE
METHOD  WB97X-V
BASIS  DEF2-SVPD
UNRESTRICTED  FALSE
MAX_SCF_CYCLES  2000
THRESH  14
SCF_CONVERGENCE  9
MEM_TOTAL  8000
MEM_STATIC  2000
SCF_GUESS  FRAGMO
SYMMETRY  FALSE
SYM_IGNORE  FALSE
SCF_ALGORITHM  DIIS
BASIS_LIN_DEP_THRESH  6
IDERIV  1
XC_GRID  000075000302
NL_GRID  1
FD_MAT_VEC_PROD  FALSE
GEOM_OPT_TOL_GRADIENT  50
GEOM_OPT_TOL_DISPLACEMENT  50
GEOM_OPT_TOL_ENERGY  10
GEOM_OPT_DRIVER  OPTIMIZE
GEOM_OPT_MAX_CYCLES  200
$end

--------------------------------------------------------------

   13    -502.9366456392      3.37e-10  Convergence criterion met
 Total energy in the final basis set =     -502.9366456392
   11    -502.9384022097      7.93e-10  Convergence criterion met
 Total energy in the final basis set =     -502.9384022097
    9    -502.9384086677      9.54e-10  Convergence criterion met
 Total energy in the final basis set =     -502.9384086677
    9    -502.9384109114      8.23e-10  Convergence criterion met
 Total energy in the final basis set =     -502.9384109114
   10    -502.9384127982      3.22e-10  Convergence criterion met
 Total energy in the final basis set =     -502.9384127982
    9    -502.9384137655      8.80e-10  Convergence criterion met
 Total energy in the final basis set =     -502.9384137655
    9    -502.9384142316      7.51e-10  Convergence criterion met
 Total energy in the final basis set =     -502.9384142316
    9    -502.9384143904      4.53e-10  Convergence criterion met
 **  OPTIMIZATION CONVERGED  **
 Total job time:  199.81s(wall), 4455.57s(cpu)
        *  Thank you very much for using Q-Chem.  Have a nice day.  *
 Q-Chem 6.0, Q-Chem, Inc., Pleasanton, CA (2022)
 Q-Chem 6.0.2 for Intel X86 EM64T Linux

User input:
--------------------------------------------------------------

$molecule
read
$end

$rem
JOBTYPE  FREQ
GEN_SCFMAN  TRUE
METHOD  WB97X-V
BASIS  DEF2-SVPD
UNRESTRICTED  FALSE
MAX_SCF_CYCLES  2000
THRESH  14
SCF_CONVERGENCE  9
MEM_TOTAL  8000
MEM_STATIC  2000
SCF_GUESS  FRAGMO
SYMMETRY  FALSE
SYM_IGNORE  FALSE
SCF_ALGORITHM  DIIS
BASIS_LIN_DEP_THRESH  6
IDERIV  1
XC_GRID  000075000302
NL_GRID  1
FD_MAT_VEC_PROD  FALSE
GEOM_OPT_TOL_GRADIENT  50
GEOM_OPT_TOL_DISPLACEMENT  50
GEOM_OPT_TOL_ENERGY  10
GEOM_OPT_DRIVER  OPTIMIZE
GEOM_OPT_MAX_CYCLES  200
$end

--------------------------------------------------------------

 Frequency:        37.07                  53.20                  54.31
 Force Cnst:      0.0027                 0.0077                 0.0055
 Red. Mass:       3.3521                 4.6210                 3.1396
 IR Intens:       27.065                 18.157                  0.010
 Frequency:        72.31                  90.55                 128.64
 Force Cnst:      0.0140                 0.0159                 0.0100
 Red. Mass:       4.5550                 3.2912                 1.0233
 IR Intens:        7.902                 25.985                  0.027
 Frequency:       159.92                 162.81                 200.89
 Force Cnst:      0.0155                 0.0166                 0.0535
 Red. Mass:       1.0314                 1.0624                 2.2481
 IR Intens:        0.015                  0.000                  0.791
 Frequency:       204.62                 238.54                 605.44
 Force Cnst:      0.0561                 0.0774                 0.2303
 Red. Mass:       2.2744                 2.3087                 1.0665
 IR Intens:        0.406                  0.806                  8.679
 Frequency:       615.81                 627.50                 668.26
 Force Cnst:      0.2411                 0.7592                 0.3076
 Red. Mass:       1.0791                 3.2726                 1.1692
 IR Intens:        8.029                  1.368                  0.020
 Frequency:       717.49                 719.19                 761.60
 Force Cnst:      0.8479                 0.8431                 0.4622
 Red. Mass:       2.7956                 2.7667                 1.3525
 IR Intens:        9.323                  6.824                 42.643
 Frequency:       769.99                 840.24                 843.29
 Force Cnst:      0.4702                 0.5877                 0.6026
 Red. Mass:       1.3462                 1.4128                 1.4381
 IR Intens:       24.527                 16.915                 22.835
 Frequency:       861.45                 913.51                 921.88
 Force Cnst:      0.6858                 0.6554                 0.6427
 Red. Mass:       1.5685                 1.3330                 1.2835
 IR Intens:       64.231                151.881                180.018
 Frequency:      1270.67                1273.04                1279.79
 Force Cnst:      1.2209                 1.2260                 1.2054
 Red. Mass:       1.2834                 1.2840                 1.2491
 IR Intens:       38.764                 45.599                 11.441
 Frequency:      1424.87                1427.87                1429.30
 Force Cnst:      1.2571                 1.2609                 1.2636
 Red. Mass:       1.0509                 1.0497                 1.0498
 IR Intens:        0.109                  0.172                  0.227
 Frequency:      1436.88                1438.14                1445.66
 Force Cnst:      1.2714                 1.2755                 1.2857
 Red. Mass:       1.0451                 1.0467                 1.0442
 IR Intens:        2.114                  2.197                  8.884
 Frequency:      2179.70                2256.72                3046.25
 Force Cnst:      2.9086                14.6161                 5.6695
 Red. Mass:       1.0391                 4.8711                 1.0370
 IR Intens:      205.061                  5.225                  5.119
 Frequency:      3047.35                3047.65                3136.48
 Force Cnst:      5.6742                 5.6757                 6.3837
 Red. Mass:       1.0371                 1.0371                 1.1014
 IR Intens:        3.001                  7.453                  3.937
 Frequency:      3136.57                3138.51                3142.38
 Force Cnst:      6.3847                 6.3901                 6.4097
 Red. Mass:       1.1015                 1.1011                 1.1017
 IR Intens:        2.883                 21.214                 10.849
 Frequency:      3149.76                3150.39                3458.05
 Force Cnst:      6.4413                 6.4417                 8.4815
 Red. Mass:       1.1020                 1.1016                 1.2038
 IR Intens:        2.285                  6.818                 67.325
 Q-Chem 6.0, Q-Chem, Inc., Pleasanton, CA (2022)
 Q-Chem 6.0.2 for Intel X86 EM64T Linux

User input:
--------------------------------------------------------------

$molecule
read
$end

$rem
JOBTYPE  OPT
GEN_SCFMAN  TRUE
POL_GEOM  TRUE
METHOD  WB97X-V
BASIS  DEF2-SVPD
UNRESTRICTED  FALSE
MAX_SCF_CYCLES  2000
THRESH  14
SCF_CONVERGENCE  9
MEM_TOTAL  8000
MEM_STATIC  2000
SCF_GUESS  FRAGMO
SYMMETRY  FALSE
SYM_IGNORE  FALSE
SCF_ALGORITHM  DIIS
BASIS_LIN_DEP_THRESH  6
IDERIV  1
SCFMI_MODE  0
XC_GRID  000075000302
NL_GRID  1
FD_MAT_VEC_PROD  FALSE
GEOM_OPT_TOL_GRADIENT  50
GEOM_OPT_TOL_DISPLACEMENT  50
GEOM_OPT_TOL_ENERGY  10
GEOM_OPT_DRIVER  OPTIMIZE
GEOM_OPT_MAX_CYCLES  200
$end

--------------------------------------------------------------

 Q-Chem 6.0, Q-Chem, Inc., Pleasanton, CA (2022)
 Q-Chem 6.0.2 for Intel X86 EM64T Linux

                    Orbital Energies (a.u.)
 --------------------------------------------------------------

 Alpha MOs
 -- Occupied --
-66.1212 -14.4485 -10.3446 -10.2656 -10.2623 -10.2623  -5.3764  -3.7306
 -3.7298  -3.7297  -1.0473  -0.8388  -0.7992  -0.7973  -0.7196  -0.5933
 -0.5283  -0.5167  -0.5158  -0.4981  -0.4959  -0.4947  -0.4854  -0.4741
 -0.4736  -0.4102  -0.4036  -0.4032

 Frequency:        31.40                  44.42                  46.08
 Force Cnst:      0.0019                 0.0057                 0.0042
 Red. Mass:       3.2575                 4.9133                 3.3452
 IR Intens:       27.104                 18.378                  0.128
 Frequency:        58.62                  84.69                 126.21
 Force Cnst:      0.0087                 0.0137                 0.0095
 Red. Mass:       4.3135                 3.2373                 1.0166
 IR Intens:        4.426                 27.174                  0.013
 Frequency:       158.31                 160.05                 199.89
 Force Cnst:      0.0153                 0.0159                 0.0526
 Red. Mass:       1.0333                 1.0560                 2.2356
 IR Intens:        0.006                  0.001                  0.802
 Frequency:       203.06                 236.72                 604.77
 Force Cnst:      0.0550                 0.0763                 0.2299
 Red. Mass:       2.2645                 2.3121                 1.0671
 IR Intens:        0.412                  0.876                  8.515
 Frequency:       612.89                 627.26                 666.47
 Force Cnst:      0.2382                 0.7558                 0.3059
 Red. Mass:       1.0765                 3.2605                 1.1689
 IR Intens:        7.881                  1.323                  0.008
 Frequency:       717.23                 718.77                 766.81
 Force Cnst:      0.8431                 0.8394                 0.4666
 Red. Mass:       2.7818                 2.7576                 1.3467
 IR Intens:        9.081                  6.830                 45.713
 Frequency:       768.86                 839.78                 841.72
 Force Cnst:      0.4681                 0.5920                 0.6002
 Red. Mass:       1.3441                 1.4246                 1.4378
 IR Intens:       24.625                 18.452                 22.277
 Frequency:       860.86                 914.55                 921.29
 Force Cnst:      0.6871                 0.6534                 0.6459
 Red. Mass:       1.5736                 1.3259                 1.2916
 IR Intens:       61.894                152.244                174.850
 Frequency:      1270.57                1272.80                1279.19
 Force Cnst:      1.2215                 1.2259                 1.2045
 Red. Mass:       1.2842                 1.2843                 1.2493
 IR Intens:       39.491                 44.972                 10.360
 Frequency:      1424.48                1428.50                1428.66
 Force Cnst:      1.2565                 1.2618                 1.2624
 Red. Mass:       1.0510                 1.0495                 1.0497
 IR Intens:        0.075                  0.198                  0.252
 Frequency:      1436.56                1438.56                1445.59
 Force Cnst:      1.2710                 1.2764                 1.2854
 Red. Mass:       1.0453                 1.0468                 1.0440
 IR Intens:        2.170                  2.371                  8.929
 Frequency:      2182.65                2259.86                3046.43
 Force Cnst:      2.9167                14.6380                 5.6705
 Red. Mass:       1.0391                 4.8649                 1.0370
 IR Intens:      197.466                  4.046                  4.879
 Frequency:      3047.61                3047.85                3136.91
 Force Cnst:      5.6755                 5.6767                 6.3858
 Red. Mass:       1.0371                 1.0372                 1.1014
 IR Intens:        2.420                  6.768                  3.637
 Frequency:      3136.94                3138.70                3142.41
 Force Cnst:      6.3867                 6.3906                 6.4095
 Red. Mass:       1.1016                 1.1010                 1.1017
 IR Intens:        1.516                 22.218                 10.658
 Frequency:      3148.60                3149.27                3459.30
 Force Cnst:      6.4362                 6.4369                 8.4904
 Red. Mass:       1.1019                 1.1016                 1.2042
 IR Intens:        2.658                  8.027                 66.924
 Q-Chem 6.0, Q-Chem, Inc., Pleasanton, CA (2022)
 Q-Chem 6.0.2 for Intel X86 EM64T Linux
        *  Thank you very much for using Q-Chem.  Have a nice day.  *
 Q-Chem 6.0, Q-Chem, Inc., Pleasanton, CA (2022)
 Q-Chem 6.0.2 for Intel X86 EM64T Linux
 Total energy in the final basis set =     -502.9362701771
 Total energy in the final basis set =     -502.9362678533
 Total energy in the final basis set =     -502.9362678609
 Total energy in the final basis set =     -502.9362699334
 Total energy in the final basis set =     -502.9362700188
 Total energy in the final basis set =     -502.9362700944
 Total energy in the final basis set =     -502.9362700945
 Total energy in the final basis set =     -502.9362671358
 Total energy in the final basis set =     -502.9362671025
 Total energy in the final basis set =     -502.9362701258
 Total energy in the final basis set =     -502.9362701679
 Total energy in the final basis set =     -502.9362701741
 Total energy in the final basis set =     -502.9362701741
 Total energy in the final basis set =     -502.9362695419
 Total energy in the final basis set =     -502.9362694809

          Ground-State Mulliken Net Atomic Charges

     Atom                 Charge (a.u.)
  ----------------------------------------
      1 H                     0.305194
      2 Si                   -0.288968
      3 C                     0.070369
      4 H                    -0.029879
      5 H                    -0.029111
      6 H                    -0.014920
      7 C                     0.069071
      8 H                    -0.028903
      9 H                    -0.020410
     10 H                    -0.028903
     11 C                     0.070369
     12 H                    -0.014920
     13 H                    -0.029110
     14 H                    -0.029879
     15 N                    -0.015023
     16 C                     0.191095
     17 H                    -0.176072
  ----------------------------------------
  Sum of atomic charges =     0.000000

                    Cartesian Multipole Moments
 -----------------------------------------------------------------
    Charge (ESU x 10^10)
                 0.0000
    Dipole Moment (Debye)
         X       0.8654      Y       0.0003      Z       2.5145
       Tot       2.6593
    Quadrupole Moments (Debye-Ang)
        XX     -51.1279     XY      -0.0008     YY     -47.5885
        XZ      -8.9424     YZ       0.0003     ZZ     -44.5182

             Standard Nuclear Orientation (Angstroms)
    I     Atom           X                Y                Z
 ----------------------------------------------------------------
    1      H       0.0895980864     0.0000339589     1.5095352328
    2      Si      0.8478638558     0.0000037022     0.2107815774
    3      C       0.3842229716     1.5486275567    -0.7557508914
    4      H      -0.6913984259     1.5635548508    -0.9926246990
    5      H       0.6212001791     2.4633816813    -0.1886651005
    6      H       0.9370697952     1.5937598302    -1.7087572374
    7      C       2.6900691634     0.0000075373     0.6133286065
    8      H       2.9730875797     0.8900530240     1.1980932713
    9      H       3.2935346278    -0.0000134457    -0.3094571499
   10      H       2.9730829711    -0.8900148279     1.1981306608
   11      C       0.3842132556    -1.5486568061    -0.7556865316
   12      H       0.9370632297    -1.5938343425    -1.7086888880
   13      H       0.6211803655    -2.4633885909    -0.1885605471
   14      H      -0.6914076067    -1.5635843242    -0.9925623222
   15      N      -3.2462744270    -0.0000500886    -0.3111237148
   16      C      -3.0251417494     0.0000548174     0.8201608692
   17      H      -2.8093656415     0.0001523438     1.8781683834
 ----------------------------------------------------------------

 Frequency:        28.70                  42.14                  43.11
 Force Cnst:      0.0015                 0.0050                 0.0038
 Red. Mass:       3.1475                 4.8101                 3.4809
 IR Intens:       31.385                 12.116                  0.970
 Frequency:        53.74                  72.26                 125.96
 Force Cnst:      0.0073                 0.0101                 0.0095
 Red. Mass:       4.2615                 3.2794                 1.0153
 IR Intens:        4.479                 19.189                  0.016
 Frequency:       158.65                 159.49                 199.55
 Force Cnst:      0.0154                 0.0158                 0.0524
 Red. Mass:       1.0352                 1.0543                 2.2323
 IR Intens:        0.005                  0.003                  0.939
 Frequency:       202.50                 236.29                 604.26
 Force Cnst:      0.0544                 0.0760                 0.2296
 Red. Mass:       2.2536                 2.3099                 1.0671
 IR Intens:        0.717                  1.297                  8.031
 Frequency:       610.16                 627.25                 665.89
 Force Cnst:      0.2355                 0.7554                 0.3054
 Red. Mass:       1.0737                 3.2587                 1.1688
 IR Intens:        7.058                  1.701                  0.000
 Frequency:       716.89                 718.43                 763.78
 Force Cnst:      0.8414                 0.8382                 0.4638
 Red. Mass:       2.7786                 2.7564                 1.3494
 IR Intens:        9.726                  8.177                 33.618
 Frequency:       765.92                 839.49                 841.20
 Force Cnst:      0.4650                 0.5920                 0.5968
 Red. Mass:       1.3454                 1.4258                 1.4315
 IR Intens:       30.250                 19.227                 20.334
 Frequency:       861.17                 914.76                 919.58
 Force Cnst:      0.6882                 0.6538                 0.6490
 Red. Mass:       1.5751                 1.3261                 1.3026
 IR Intens:       62.549                162.668                157.828
 Frequency:      1270.55                1272.74                1279.38
 Force Cnst:      1.2212                 1.2257                 1.2049
 Red. Mass:       1.2840                 1.2842                 1.2494
 IR Intens:       41.766                 43.727                  8.609
 Frequency:      1424.62                1428.42                1428.60
 Force Cnst:      1.2569                 1.2616                 1.2622
 Red. Mass:       1.0511                 1.0495                 1.0497
 IR Intens:        0.009                  0.043                  0.152
 Frequency:      1436.98                1438.44                1445.52
 Force Cnst:      1.2718                 1.2761                 1.2853
 Red. Mass:       1.0453                 1.0468                 1.0440
 IR Intens:        3.459                  3.319                 10.346
 Frequency:      2186.54                2260.13                3046.43
 Force Cnst:      2.9276                14.6438                 5.6705
 Red. Mass:       1.0393                 4.8656                 1.0370
 IR Intens:      162.272                  3.438                  4.514
 Frequency:      3047.75                3048.03                3137.14
 Force Cnst:      5.6760                 5.6774                 6.3878
 Red. Mass:       1.0371                 1.0372                 1.1016
 IR Intens:        3.258                  5.895                  0.762
 Frequency:      3137.23                3138.84                3142.42
 Force Cnst:      6.3872                 6.3910                 6.4095
 Red. Mass:       1.1015                 1.1010                 1.1016
 IR Intens:        3.028                 25.139                 10.383
 Frequency:      3148.33                3148.96                3459.86
 Force Cnst:      6.4350                 6.4356                 8.4929
 Red. Mass:       1.1019                 1.1016                 1.2042
 IR Intens:        2.216                 15.095                 74.379

 STANDARD THERMODYNAMIC QUANTITIES AT   298.15 K  AND     1.00 ATM

   This Molecule has  0 Imaginary Frequencies
   Zero point vibrational energy:       85.057 kcal/mol

   Atom    1 Element H  Has Mass    1.00783
   Atom    2 Element Si Has Mass   27.97693
   Atom    3 Element C  Has Mass   12.00000
   Atom    4 Element H  Has Mass    1.00783
   Atom    5 Element H  Has Mass    1.00783
   Atom    6 Element H  Has Mass    1.00783
   Atom    7 Element C  Has Mass   12.00000
   Atom    8 Element H  Has Mass    1.00783
   Atom    9 Element H  Has Mass    1.00783
   Atom   10 Element H  Has Mass    1.00783
   Atom   11 Element C  Has Mass   12.00000
   Atom   12 Element H  Has Mass    1.00783
   Atom   13 Element H  Has Mass    1.00783
   Atom   14 Element H  Has Mass    1.00783
   Atom   15 Element N  Has Mass   14.00307
   Atom   16 Element C  Has Mass   12.00000
   Atom   17 Element H  Has Mass    1.00783
   Molecular Mass:   101.066130 amu
   Principal axes and moments of inertia in amu*Bohr^2:
                             1           2           3
    Eigenvalues --      453.90558  1618.07840  1745.79395
          X               1.00000    -0.00000    -0.00308
          Y               0.00000     1.00000     0.00000
          Z               0.00308    -0.00000     1.00000
   Rotational Symmetry Number is   1
   The Molecule is an Asymmetric Top
   Translational Enthalpy:        0.889 kcal/mol
   Rotational Enthalpy:           0.889 kcal/mol
   Vibrational Enthalpy:         90.775 kcal/mol
   gas constant (RT):             0.592 kcal/mol
   Translational Entropy:        39.749  cal/mol.K
   Rotational Entropy:           28.640  cal/mol.K
   Vibrational Entropy:          42.795  cal/mol.K

   Total Enthalpy:               93.145 kcal/mol
   Total Entropy:               111.185  cal/mol.K
 Total job time:  4661.24s(wall), 12933.98s(cpu)
        *  Thank you very much for using Q-Chem.  Have a nice day.  *
