 Q-Chem 6.0, Q-Chem, Inc., Pleasanton, CA (2022)
 Q-Chem 6.0.2 for Intel X86 EM64T Linux

User input:
--------------------------------------------------------------
$molecule
0 1
--
0 1
H    0.03437    -0.05888   0.02542
Si   0.00790    -0.01350   1.51767
C    1.77703    0.00779    2.12478
H    2.31300    -0.88897   1.81674
H    2.31708    0.87123    1.73898
H    1.80646    0.05495    3.21325
C    -0.89705   1.54226    2.02410
H    -0.39498   2.43123    1.64570
H    -0.94260   1.62044    3.11008
H    -1.91797   1.54537    1.64561
C    -0.88532   -1.54080   2.12463
H    -0.94093   -1.54313   3.21309
H    -0.37080   -2.45002   1.81656
H    -1.90283   -1.58331   1.73875
--
0 1
I    1.16661    -2.00485   -1.55457
C    1.99354    -3.42611   -2.68666
N    2.48051    -4.26307   -3.35124
$end

$rem
JOBTYPE  OPT
GEN_SCFMAN  TRUE
METHOD  WB97X-V
BASIS  DEF2-SVPD
UNRESTRICTED  FALSE
MAX_SCF_CYCLES  2000
THRESH  14
SCF_CONVERGENCE  9
MEM_TOTAL  8000
MEM_STATIC  2000
SCF_GUESS  FRAGMO
SYMMETRY  FALSE
SYM_IGNORE  FALSE
SCF_ALGORITHM  DIIS
BASIS_LIN_DEP_THRESH  6
IDERIV  1
XC_GRID  000075000302
NL_GRID  1
FD_MAT_VEC_PROD  FALSE
GEOM_OPT_TOL_GRADIENT  50
GEOM_OPT_TOL_DISPLACEMENT  50
GEOM_OPT_TOL_ENERGY  10
GEOM_OPT_DRIVER  OPTIMIZE
GEOM_OPT_MAX_CYCLES  200
$end

--------------------------------------------------------------

   13    -800.0192638608      5.75e-10  Convergence criterion met
 Total energy in the final basis set =     -800.0192638608
   12    -800.0211610116      8.63e-10  Convergence criterion met
 Total energy in the final basis set =     -800.0211610116
   11    -800.0211878409      8.84e-10  Convergence criterion met
 Total energy in the final basis set =     -800.0211878409
   12    -800.0211851546      4.25e-10  Convergence criterion met
 Total energy in the final basis set =     -800.0211851546
   12    -800.0211990121      3.39e-10  Convergence criterion met
 Total energy in the final basis set =     -800.0211990121
   10    -800.0211999505      5.19e-10  Convergence criterion met
 Total energy in the final basis set =     -800.0211999505
    9    -800.0212002842      3.66e-10  Convergence criterion met
 Total energy in the final basis set =     -800.0212002842
   11    -800.0212009800      4.67e-10  Convergence criterion met
 **  OPTIMIZATION CONVERGED  **
 Total job time:  324.42s(wall), 9796.71s(cpu)
        *  Thank you very much for using Q-Chem.  Have a nice day.  *
 Q-Chem 6.0, Q-Chem, Inc., Pleasanton, CA (2022)
 Q-Chem 6.0.2 for Intel X86 EM64T Linux

User input:
--------------------------------------------------------------

$molecule
read
$end

$rem
JOBTYPE  FREQ
GEN_SCFMAN  TRUE
METHOD  WB97X-V
BASIS  DEF2-SVPD
UNRESTRICTED  FALSE
MAX_SCF_CYCLES  2000
THRESH  14
SCF_CONVERGENCE  9
MEM_TOTAL  8000
MEM_STATIC  2000
SCF_GUESS  FRAGMO
SYMMETRY  FALSE
SYM_IGNORE  FALSE
SCF_ALGORITHM  DIIS
BASIS_LIN_DEP_THRESH  6
IDERIV  1
XC_GRID  000075000302
NL_GRID  1
FD_MAT_VEC_PROD  FALSE
GEOM_OPT_TOL_GRADIENT  50
GEOM_OPT_TOL_DISPLACEMENT  50
GEOM_OPT_TOL_ENERGY  10
GEOM_OPT_DRIVER  OPTIMIZE
GEOM_OPT_MAX_CYCLES  200
$end

--------------------------------------------------------------

 Frequency:        20.41                  31.69                  55.31
 Force Cnst:      0.0009                 0.0032                 0.0098
 Red. Mass:       3.6415                 5.4394                 5.4593
 IR Intens:        0.721                  1.639                  1.809
 Frequency:        55.35                  79.37                 118.71
 Force Cnst:      0.0155                 0.0136                 0.0084
 Red. Mass:       8.5943                 3.6758                 1.0176
 IR Intens:        1.648                  1.822                  0.001
 Frequency:       151.56                 157.36                 199.88
 Force Cnst:      0.0142                 0.0154                 0.0527
 Red. Mass:       1.0460                 1.0550                 2.2404
 IR Intens:        0.004                  0.003                  0.744
 Frequency:       201.87                 239.13                 326.46
 Force Cnst:      0.0540                 0.0798                 0.7832
 Red. Mass:       2.2499                 2.3682                12.4734
 IR Intens:        0.607                  1.438                  2.671
 Frequency:       327.06                 492.96                 605.85
 Force Cnst:      0.7870                 2.0985                 0.2312
 Red. Mass:      12.4877                14.6568                 1.0690
 IR Intens:        2.363                 14.847                  7.114
 Frequency:       624.65                 633.91                 666.70
 Force Cnst:      0.4779                 0.3239                 0.3062
 Red. Mass:       2.0790                 1.3681                 1.1694
 IR Intens:       10.954                  9.157                  0.006
 Frequency:       720.63                 724.60                 840.82
 Force Cnst:      0.8355                 0.8390                 0.5872
 Red. Mass:       2.7307                 2.7121                 1.4098
 IR Intens:        6.256                  5.358                 14.890
 Frequency:       843.39                 858.99                 909.17
 Force Cnst:      0.6258                 0.6884                 0.6556
 Red. Mass:       1.4932                 1.5835                 1.3461
 IR Intens:       23.808                118.608                136.343
 Frequency:       939.76                1273.85                1274.47
 Force Cnst:      0.6412                 1.2272                 1.2272
 Red. Mass:       1.2324                 1.2836                 1.2823
 IR Intens:      202.959                 40.331                 44.611
 Frequency:      1282.29                1423.08                1425.78
 Force Cnst:      1.2080                 1.2548                 1.2568
 Red. Mass:       1.2469                 1.0517                 1.0493
 IR Intens:       10.456                  0.088                  0.249
 Frequency:      1426.80                1434.95                1435.25
 Force Cnst:      1.2585                 1.2686                 1.2691
 Red. Mass:       1.0493                 1.0457                 1.0457
 IR Intens:        0.358                  2.644                  4.026
 Frequency:      1443.22                2142.94                2363.98
 Force Cnst:      1.2810                 2.8083                41.7381
 Red. Mass:       1.0438                 1.0379                12.6763
 IR Intens:       10.214                473.217                  7.398
 Frequency:      3047.27                3047.50                3049.18
 Force Cnst:      5.6740                 5.6755                 5.6802
 Red. Mass:       1.0371                 1.0372                 1.0369
 IR Intens:        1.714                  2.790                  3.366
 Frequency:      3138.98                3139.87                3142.13
 Force Cnst:      6.3952                 6.3969                 6.4073
 Red. Mass:       1.1016                 1.1013                 1.1015
 IR Intens:        0.099                 13.240                 10.840
 Frequency:      3144.00                3144.36                3148.22
 Force Cnst:      6.4167                 6.4176                 6.4352
 Red. Mass:       1.1018                 1.1017                 1.1020
 IR Intens:        3.637                 10.220                  7.437
 Q-Chem 6.0, Q-Chem, Inc., Pleasanton, CA (2022)
 Q-Chem 6.0.2 for Intel X86 EM64T Linux

User input:
--------------------------------------------------------------

$molecule
read
$end

$rem
JOBTYPE  OPT
GEN_SCFMAN  TRUE
POL_GEOM  TRUE
METHOD  WB97X-V
BASIS  DEF2-SVPD
UNRESTRICTED  FALSE
MAX_SCF_CYCLES  2000
THRESH  14
SCF_CONVERGENCE  9
MEM_TOTAL  8000
MEM_STATIC  2000
SCF_GUESS  FRAGMO
SYMMETRY  FALSE
SYM_IGNORE  FALSE
SCF_ALGORITHM  DIIS
BASIS_LIN_DEP_THRESH  6
IDERIV  1
SCFMI_MODE  0
XC_GRID  000075000302
NL_GRID  1
FD_MAT_VEC_PROD  FALSE
GEOM_OPT_TOL_GRADIENT  50
GEOM_OPT_TOL_DISPLACEMENT  50
GEOM_OPT_TOL_ENERGY  10
GEOM_OPT_DRIVER  OPTIMIZE
GEOM_OPT_MAX_CYCLES  200
$end

--------------------------------------------------------------

 Q-Chem 6.0, Q-Chem, Inc., Pleasanton, CA (2022)
 Q-Chem 6.0.2 for Intel X86 EM64T Linux

                    Orbital Energies (a.u.)
 --------------------------------------------------------------

 Alpha MOs
 -- Occupied --
-66.1365 -14.4430 -10.3591 -10.2774 -10.2774 -10.2774  -7.0083  -5.3917
 -5.0462  -5.0252  -5.0252  -3.7461  -3.7450  -3.7450  -2.0989  -2.0918
 -2.0918  -2.0745  -2.0745  -1.0449  -0.9008  -0.8528  -0.8122  -0.8122
 -0.6180  -0.6024  -0.5411  -0.5290  -0.5285  -0.5088  -0.5087  -0.4979
 -0.4948  -0.4947  -0.4874  -0.4252  -0.4183  -0.4180  -0.3960  -0.3958

 Frequency:        22.08                  27.32                  38.67
 Force Cnst:      0.0011                 0.0030                 0.0047
 Red. Mass:       3.7637                 6.8167                 5.3393
 IR Intens:        0.739                  2.025                  1.947
 Frequency:        42.30                  63.33                 131.12
 Force Cnst:      0.0077                 0.0085                 0.0103
 Red. Mass:       7.2767                 3.6039                 1.0142
 IR Intens:        1.094                  0.487                  0.001
 Frequency:       161.02                 162.89                 200.48
 Force Cnst:      0.0158                 0.0164                 0.0528
 Red. Mass:       1.0351                 1.0515                 2.2285
 IR Intens:        0.003                  0.003                  0.748
 Frequency:       201.12                 236.89                 325.52
 Force Cnst:      0.0538                 0.0771                 0.7835
 Red. Mass:       2.2580                 2.3315                12.5495
 IR Intens:        0.657                  1.518                  2.306
 Frequency:       325.69                 504.55                 606.40
 Force Cnst:      0.7843                 2.3072                 0.2316
 Red. Mass:      12.5495                15.3828                 1.0690
 IR Intens:        1.950                  4.197                  7.389
 Frequency:       620.83                 627.79                 665.45
 Force Cnst:      0.2579                 0.6681                 0.3050
 Red. Mass:       1.1358                 2.8773                 1.1690
 IR Intens:       11.078                  1.203                  0.003
 Frequency:       718.70                 721.46                 841.04
 Force Cnst:      0.8401                 0.8390                 0.5970
 Red. Mass:       2.7604                 2.7360                 1.4325
 IR Intens:        6.912                  6.718                 18.613
 Frequency:       841.85                 860.02                 915.34
 Force Cnst:      0.6151                 0.6884                 0.6507
 Red. Mass:       1.4730                 1.5797                 1.3181
 IR Intens:       23.631                 89.421                138.050
 Frequency:       932.47                1274.15                1274.64
 Force Cnst:      0.6477                 1.2287                 1.2273
 Red. Mass:       1.2643                 1.2846                 1.2821
 IR Intens:      186.333                 40.234                 43.917
 Frequency:      1281.63                1424.97                1426.57
 Force Cnst:      1.2071                 1.2584                 1.2584
 Red. Mass:       1.2473                 1.0519                 1.0495
 IR Intens:       10.853                  0.111                  0.133
 Frequency:      1427.14                1436.86                1437.04
 Force Cnst:      1.2592                 1.2723                 1.2727
 Red. Mass:       1.0493                 1.0459                 1.0460
 IR Intens:        0.346                  2.538                  3.123
 Frequency:      1443.70                2172.83                2365.73
 Force Cnst:      1.2817                 2.8889                42.0921
 Red. Mass:       1.0438                 1.0386                12.7650
 IR Intens:       10.646                269.177                  9.551
 Frequency:      3047.34                3047.57                3049.21
 Force Cnst:      5.6745                 5.6760                 5.6810
 Red. Mass:       1.0371                 1.0373                 1.0371
 IR Intens:        1.975                  3.371                  3.722
 Frequency:      3138.66                3139.65                3141.59
 Force Cnst:      6.3940                 6.3961                 6.4046
 Red. Mass:       1.1016                 1.1013                 1.1014
 IR Intens:        0.066                 14.131                 12.809
 Frequency:      3143.44                3143.81                3146.72
 Force Cnst:      6.4142                 6.4150                 6.4279
 Red. Mass:       1.1017                 1.1016                 1.1018
 IR Intens:        3.706                 11.925                  8.775
 Q-Chem 6.0, Q-Chem, Inc., Pleasanton, CA (2022)
 Q-Chem 6.0.2 for Intel X86 EM64T Linux
        *  Thank you very much for using Q-Chem.  Have a nice day.  *
 Q-Chem 6.0, Q-Chem, Inc., Pleasanton, CA (2022)
 Q-Chem 6.0.2 for Intel X86 EM64T Linux
 Total energy in the final basis set =     -800.0176751498
 Total energy in the final basis set =     -800.0176750923
 Total energy in the final basis set =     -800.0176750827
 Total energy in the final basis set =     -800.0176728571
 Total energy in the final basis set =     -800.0176728735
 Total energy in the final basis set =     -800.0176750967
 Total energy in the final basis set =     -800.0176750989
 Total energy in the final basis set =     -800.0176746646
 Total energy in the final basis set =     -800.0176746937
 Total energy in the final basis set =     -800.0176731891
 Total energy in the final basis set =     -800.0176731823
 Total energy in the final basis set =     -800.0176751368
 Total energy in the final basis set =     -800.0176751349
 Total energy in the final basis set =     -800.0176747590
 Total energy in the final basis set =     -800.0176747812

          Ground-State Mulliken Net Atomic Charges

     Atom                 Charge (a.u.)
  ----------------------------------------
      1 H                     0.303863
      2 Si                   -0.287023
      3 C                     0.070728
      4 H                    -0.030268
      5 H                    -0.029480
      6 H                    -0.017300
      7 C                     0.070784
      8 H                    -0.027825
      9 H                    -0.019331
     10 H                    -0.027827
     11 C                     0.070728
     12 H                    -0.017300
     13 H                    -0.030266
     14 H                    -0.029483
     15 I                     0.309975
     16 C                    -0.223370
     17 N                    -0.086605
  ----------------------------------------
  Sum of atomic charges =     0.000000

                    Cartesian Multipole Moments
 -----------------------------------------------------------------
    Charge (ESU x 10^10)
                -0.0000
    Dipole Moment (Debye)
         X      -3.8935      Y       0.0005      Z       1.0507
       Tot       4.0327
    Quadrupole Moments (Debye-Ang)
        XX     -90.8389     XY       0.0025     YY     -73.4614
        XZ       5.6797     YZ      -0.0005     ZZ     -74.5570

             Standard Nuclear Orientation (Angstroms)
    I     Atom           X                Y                Z
 ----------------------------------------------------------------
    1      H      -1.7271837231     0.0003405330     1.1430175997
    2      Si     -2.7493234636    -0.0000055991     0.0374487721
    3      C      -2.4931511997    -1.5489088271    -1.0040479862
    4      H      -1.4905513641    -1.5689391702    -1.4611543012
    5      H      -2.6050975418    -2.4630209350    -0.3990462438
    6      H      -3.2314984012    -1.5962634509    -1.8214460301
    7      C      -4.4592120657     0.0002652843     0.8251088677
    8      H      -4.6094236533    -0.8896002914     1.4570981319
    9      H      -5.2461874471     0.0000337143     0.0529882335
   10      H      -4.6094019535     0.8905283772     1.4565429117
   11      C      -2.4931168259     1.5482181389    -1.0050497306
   12      H      -3.2314402493     1.5950433625    -1.8224997506
   13      H      -1.4905044425     1.5679457771    -1.4621419798
   14      H      -2.6050758292     2.4627258532    -0.4006484514
   15      I       1.4339921084     0.0001498569     0.3544899574
   16      C       3.2748480611    -0.0001974618    -0.4407990236
   17      N       4.3370147901    -0.0004172291    -0.9008904904
 ----------------------------------------------------------------

 Frequency:        20.44                  20.69                  31.59
 Force Cnst:      0.0013                 0.0024                 0.0021
 Red. Mass:       5.1958                 9.3731                 3.5739
 IR Intens:        1.854                  2.894                  1.282
 Frequency:        37.59                  60.70                 134.13
 Force Cnst:      0.0053                 0.0073                 0.0108
 Red. Mass:       6.3298                 3.3815                 1.0146
 IR Intens:        0.440                  0.128                  0.000
 Frequency:       162.33                 165.59                 200.37
 Force Cnst:      0.0161                 0.0169                 0.0527
 Red. Mass:       1.0342                 1.0485                 2.2274
 IR Intens:        0.003                  0.000                  0.865
 Frequency:       201.52                 235.15                 322.70
 Force Cnst:      0.0540                 0.0754                 0.7697
 Red. Mass:       2.2587                 2.3133                12.5444
 IR Intens:        0.916                  1.559                  1.522
 Frequency:       322.82                 510.28                 604.04
 Force Cnst:      0.7711                 2.3709                 0.2298
 Red. Mass:      12.5592                15.4542                 1.0692
 IR Intens:        1.611                  1.749                  7.778
 Frequency:       620.07                 627.80                 665.37
 Force Cnst:      0.2554                 0.6788                 0.3049
 Red. Mass:       1.1274                 2.9233                 1.1688
 IR Intens:        5.462                  1.928                  0.002
 Frequency:       718.03                 720.34                 839.90
 Force Cnst:      0.8397                 0.8393                 0.5931
 Red. Mass:       2.7645                 2.7452                 1.4269
 IR Intens:        8.901                  8.999                 18.920
 Frequency:       841.62                 860.22                 915.58
 Force Cnst:      0.6138                 0.6900                 0.6533
 Red. Mass:       1.4707                 1.5827                 1.3227
 IR Intens:       26.703                 65.609                160.231
 Frequency:       933.49                1273.31                1273.50
 Force Cnst:      0.6495                 1.2252                 1.2273
 Red. Mass:       1.2650                 1.2825                 1.2844
 IR Intens:      154.838                 42.757                 43.140
 Frequency:      1280.68                1425.49                1426.98
 Force Cnst:      1.2057                 1.2594                 1.2593
 Red. Mass:       1.2477                 1.0519                 1.0497
 IR Intens:        7.681                  0.001                  0.038
 Frequency:      1427.45                1437.27                1437.71
 Force Cnst:      1.2599                 1.2732                 1.2738
 Red. Mass:       1.0494                 1.0461                 1.0460
 IR Intens:        0.052                  3.344                  3.285
 Frequency:      1443.84                2178.90                2367.83
 Force Cnst:      1.2821                 2.9062                42.1764
 Red. Mass:       1.0439                 1.0390                12.7678
 IR Intens:       10.433                163.726                  8.006
 Frequency:      3047.51                3047.74                3048.85
 Force Cnst:      5.6750                 5.6765                 5.6799
 Red. Mass:       1.0371                 1.0372                 1.0371
 IR Intens:        3.097                  5.507                  4.720
 Frequency:      3138.86                3139.67                3141.34
 Force Cnst:      6.3947                 6.3969                 6.4026
 Red. Mass:       1.1016                 1.1014                 1.1012
 IR Intens:        0.501                  8.239                 19.831
 Frequency:      3143.50                3143.94                3146.19
 Force Cnst:      6.4144                 6.4155                 6.4255
 Red. Mass:       1.1017                 1.1016                 1.1018
 IR Intens:        3.878                 14.542                 11.435

 STANDARD THERMODYNAMIC QUANTITIES AT   298.15 K  AND     1.00 ATM

   This Molecule has  0 Imaginary Frequencies
   Zero point vibrational energy:       79.689 kcal/mol

   Atom    1 Element H  Has Mass    1.00783
   Atom    2 Element Si Has Mass   27.97693
   Atom    3 Element C  Has Mass   12.00000
   Atom    4 Element H  Has Mass    1.00783
   Atom    5 Element H  Has Mass    1.00783
   Atom    6 Element H  Has Mass    1.00783
   Atom    7 Element C  Has Mass   12.00000
   Atom    8 Element H  Has Mass    1.00783
   Atom    9 Element H  Has Mass    1.00783
   Atom   10 Element H  Has Mass    1.00783
   Atom   11 Element C  Has Mass   12.00000
   Atom   12 Element H  Has Mass    1.00783
   Atom   13 Element H  Has Mass    1.00783
   Atom   14 Element H  Has Mass    1.00783
   Atom   15 Element I  Has Mass  126.90440
   Atom   16 Element C  Has Mass   12.00000
   Atom   17 Element N  Has Mass   14.00307
   Molecular Mass:   226.962700 amu
   Principal axes and moments of inertia in amu*Bohr^2:
                             1           2           3
    Eigenvalues --      571.13956  5097.21299  5107.92232
          X               0.99999    -0.00001    -0.00414
          Y               0.00000     1.00000    -0.00101
          Z               0.00414     0.00101     0.99999
   Rotational Symmetry Number is   1
   The Molecule is an Asymmetric Top
   Translational Enthalpy:        0.889 kcal/mol
   Rotational Enthalpy:           0.889 kcal/mol
   Vibrational Enthalpy:         85.991 kcal/mol
   gas constant (RT):             0.592 kcal/mol
   Translational Entropy:        42.161  cal/mol.K
   Rotational Entropy:           31.075  cal/mol.K
   Vibrational Entropy:          49.045  cal/mol.K

   Total Enthalpy:               88.361 kcal/mol
   Total Entropy:               122.281  cal/mol.K
 Total job time:  4908.69s(wall), 19842.43s(cpu)
        *  Thank you very much for using Q-Chem.  Have a nice day.  *
