 Q-Chem 6.2 (devel), Q-Chem, Inc., Pleasanton, CA (2024)
 Q-Chem 6.2.0 for Intel X86 EM64T Linux

User input:
--------------------------------------------------------------
$molecule
0 1
--
0 1
O    -1.51598   -0.11939   0.00000
H    -1.92502   0.75089    0.00000
H    -0.55962   0.04345    0.00000
--
0 1
O    1.37714    0.09749    0.00000
H    1.75572    -0.34454   0.76773
H    1.75572    -0.34454   -0.76773
$end

$rem
JOBTYPE  OPT
GEN_SCFMAN  TRUE
METHOD  WB97X-V
BASIS  DEF2-SVPD
UNRESTRICTED  FALSE
MAX_SCF_CYCLES  2000
THRESH  14
SCF_CONVERGENCE  9
MEM_TOTAL  8000
MEM_STATIC  2000
SCF_GUESS  FRAGMO
SYMMETRY  FALSE
SYM_IGNORE  FALSE
SCF_ALGORITHM  DIIS
BASIS_LIN_DEP_THRESH  6
IDERIV  1
XC_GRID  000075000302
NL_GRID  1
FD_MAT_VEC_PROD  FALSE
GEOM_OPT_TOL_GRADIENT  50
GEOM_OPT_TOL_DISPLACEMENT  50
GEOM_OPT_TOL_ENERGY  10
GEOM_OPT_DRIVER  OPTIMIZE
GEOM_OPT_MAX_CYCLES  200
$end

--------------------------------------------------------------

   12    -152.7075095290      2.26e-10  Convergence criterion met
 Total energy =  -152.70750953
    8    -152.7075095794      7.68e-10  Convergence criterion met
 Total energy =  -152.70750958
   10    -152.7075098658      2.27e-10  Convergence criterion met
 Total energy =  -152.70750987
   10    -152.7075103315      3.11e-10  Convergence criterion met
 Total energy =  -152.70751033
   10    -152.7075110486      4.74e-10  Convergence criterion met
 Total energy =  -152.70751105
   10    -152.7075116188      3.02e-10  Convergence criterion met
 Total energy =  -152.70751162
    9    -152.7075118721      8.55e-10  Convergence criterion met
 Total energy =  -152.70751187
    8    -152.7075119327      3.35e-10  Convergence criterion met
 **  OPTIMIZATION CONVERGED  **
 Total job time:  53.81s(wall), 571.60s(cpu)
        *  Thank you very much for using Q-Chem.  Have a nice day.  *

User input: 2 of 6

                  Welcome to Q-Chem
     A Quantum Leap Into The Future Of Chemistry

 Q-Chem 6.2 (devel), Q-Chem, Inc., Pleasanton, CA (2024)

 E. Epifanovsky,  A. T. B. Gilbert,  Xintian Feng,  Joonho Lee,  Yuezhi Mao,
 N. Mardirossian,  P. Pokhilko,  A. White,  M. Wormit,  M. P. Coons,
 A. L. Dempwolff,  Zhengting Gan,  D. Hait,  P. R. Horn,  L. D. Jacobson,
 I. Kaliman,  J. Kussmann,  A. W. Lange,  Ka Un Lao,  D. S. Levine,  Jie Liu,
 S. C. McKenzie,  A. F. Morrison,  K. D. Nanda,  F. Plasser,  D. R. Rehn,
 M. L. Vidal,  Zhi-Qiang You,  Ying Zhu,  Huseyin Aksu,  B. Alam,
 B. Albrecht,  A. Aldossary,  E. Alguire,  J. H. Andersen,
 J. E. Arias-Martinez,  V. Athavale,  D. Barton,  K. Begam,  A. Behn,
 N. Bellonzi,  Y. A. Bernard,  E. J. Berquist,  H. Burton,  A. Carreras,
 K. Carter-Fenk,  Mathew Chow,  Romit Chakraborty,  Chandrima Chakravarty,
 Junhan Chen,  A. D. Chien,  K. D. Closser,  V. Cofer-Shabica,  L. Cunha,
 S. Dasgupta,  Jia Deng,  Joseph Dickinson,  M. de Wergifosse,
 M. Diedenhofen,  Hainam Do,  Wenjie Dou,  S. Ehlert,  Po-Tung Fang,
 S. Fatehi,  Qingguo Feng,  Jonathan Fetherolf,  T. Friedhoff,
 Thomas Froitzheim,  Sarai Folkestad,  B. Ganoe,  J. Gayvert,  Qinghui Ge,
 G. Gidofalvi,  M. Gimferrer,  M. Goldey,  Montgomery Gray,  J. Gomes,
 C. Gonzalez-Espinoza,  S. Gulania,  A. Gunina,  J. A. Gyamfi,
 M. W. D. Hanson-Heine,  P. H. P. Harbach,  A. W. Hauser,  M. F. Herbst,
 M. Hernandez Vera,  M. Hodecker,  Z. C. Holden,  S. Houck,  Xunkun Huang,
 Kerwin Hui,  B. C. Huynh,  K. Ikeda,  M. Ivanov,  Nayanthara K. Jayadev,
 Hyunjun Ji,  Zuxin Jin,  Hanjie Jiang,  Subrata Jana,  B. Kaduk,
 S. Kaehler,  R. Kang,  K. Khistyaev,  Jaehoon Kim,  Yongbin Kim,
 P. Klunzinger,  Z. Koczor-Benda,  Joong Hoon Koh,  D. Kosenkov,
 Saikiran Kotaru,  L. Koulias,  T. Kowalczyk,  C. M. Krauter,  K. Kue,
 A. Kunitsa,  T. Kus,  A. Landau,  K. V. Lawler,  D. Lefrancois,  S. Lehtola,
 Rain Li,  Shaozhi Li,  Tao E. Li,  Yi-Pei Li,  Jiashu Liang,  M. Liebenthal,
 Hung-Hsuan Lin,  You-Sheng Lin,  Fenglai Liu,  Kuan-Yu Liu,  Xiao Liu,
 M. Loipersberger,  A. Luenser,  C. Malbon,  Aniket Mandal,  Manisha,
 A. Manjanath,  P. Manohar,  E. Mansoor,  S. F. Manzer,  Shan-Ping Mao,
 A. V. Marenich,  T. Markovich,  S. Mason,  F. Matz,  S. A. Maurer,
 Samuel May,  Alexandra McIsaac,  P. F. McLaughlin,  M. F. S. J. Menger,
 J.-M. Mewes,  S. A. Mewes,  P. Morgante,  Mohammad Mostafanejad,
 Madhubani Mukherjee,  J. W. Mullinax,  Quyen Nguyen,  Avik Kumar Ojha,
 K. J. Oosterbaan,  Eno Paenurk,  Xiaoliang Pan,  G. Paran,  V. Parravicini,
 Alexander C. Paul,  Suranjan K. Paul,  F. Pavosevic,  Zheng Pei,  S. Prager,
 E. I. Proynov,  E. Ramos,  B. Rana,  A. E. Rask,  A. Rettig,  R. M. Richard,
 F. Rob,  E. Rossomme,  T. Scheele,  M. Scheurer,  M. Schneider,
 P. E. Schneider,  Tim K. Schramm,  N. Sergueev,  S. M. Sharada,
 Hengyuan Shen,  W. Skomorowski,  D. W. Small,  C. J. Stein,
 Alistair J. Sterling,  Yingli Su,  Yu-Chuan Su,  E. J. Sundstrom,
 J. Talbot,  Zhen Tao,  J. Thirman,  Hung-Yi Tsai,  T. Tsuchimochi,
 N. M. Tubman,  C. Utku,  S. P. Veccham,  O. Vydrov,  Rahel Weiss,
 J. Wenzel,  Jonathan Wong,  J. Witte,  H. Wu,  Yanze Wu,  A. Yamada,
 Chou-Hsun Yang,  Kun Yao,  S. Yeganeh,  S. R. Yost,  Qi Yu,  A. Zech,
 F. Zeller,  Chongxiao Zhao,  Igor Ying Zhang,  Xing Zhang,  Yu Zhang,
 D. Zuev,  A. Aspuru-Guzik,  A. T. Bell,  N. A. Besley,  K. B. Bravaya,
 B. R. Brooks,  D. Casanova,  Jeng-Da Chai,  Hsing-Ta Chen,  S. Coriani,
 C. J. Cramer,  A. E. DePrince, III,  R. A. DiStasio Jr.,  A. Dreuw,
 B. D. Dunietz,  T. R. Furlani,  W. A. Goddard III,  S. Grimme,
 S. Hammes-Schiffer,  T. Head-Gordon,  W. J. Hehre,  Chao-Ping Hsu,
 T.-C. Jagau,  Yousung Jung,  A. Klamt,  Jing Kong,  D. S. Lambrecht,
 Xiangyuan Li,  WanZhen Liang,  N. J. Mayhall,  C. W. McCurdy,  J. B. Neaton,
 T. Neudecker,  C. Ochsenfeld,  J. A. Parkhill,  R. Peverati,
 V. A. Rassolov,  Haisheng Ren,  Yihan Shao,  L. V. Slipchenko,
 R. P. Steele,  J. E. Subotnik,  A. J. W. Thom,  A. Tkatchenko,
 D. G. Truhlar,  T. Van Voorhis,  Fan Wang,  T. A. Wesolowski,  K. B. Whaley,
 H. L. Woodcock III,  P. M. Zimmerman,  S. Faraji,  P. M. W. Gill,
 M. Head-Gordon,  J. M. Herbert,  A. I. Krylov

 Contributors to earlier versions of Q-Chem not listed above:
 R. D. Adamson,  B. Austin,  R. Baer,  J. Baker,  G. J. O. Beran,
 K. Brandhorst,  S. T. Brown,  E. F. C. Byrd,  Arup K. Chakraborty,
 G. K. L. Chan,  Chun-Min Chang,  Yunqing Chen,  C.-L. Cheng,
 Siu Hung Chien,  D. M. Chipman,  D. L. Crittenden,  H. Dachsel,
 R. J. Doerksen,  A. D. Dutoi,  R. G. Edgar,  J. Fosso-Tande,
 L. Fusti-Molnar,  D. Ghosh,  A. Ghysels,  A. Golubeva-Zadorozhnaya,
 J. Gonthier,  M. S. Gordon,  S. R. Gwaltney,  G. Hawkins,  J. E. Herr,
 A. Heyden,  S. Hirata,  E. G. Hohenstein,  G. Kedziora,  F. J. Keil,
 C. Kelley,  Jihan Kim,  R. A. King,  R. Z. Khaliullin,  P. P. Korambath,
 W. Kurlancheek,  A. Laurent,  A. M. Lee,  M. S. Lee,  S. V. Levchenko,
 Ching Yeh Lin,  D. Liotard,  E. Livshits,  R. C. Lochan,  I. Lotan,
 L. A. Martinez-Martinez,  P. E. Maslen,  N. Nair,  D. P. O'Neill,
 D. Neuhauser,  E. Neuscamman,  C. M. Oana,  R. Olivares-Amaya,  R. Olson,
 T. M. Perrine,  B. Peters,  P. A. Pieniazek,  A. Prociuk,  Y. M. Rhee,
 J. Ritchie,  M. A. Rohrdanz,  E. Rosta,  N. J. Russ,  H. F. Schaefer III,
 M. W. Schmidt,  N. E. Schultz,  S. Sharma,  N. Shenvi,  C. D. Sherrill,
 A. C. Simmonett,  A. Sodt,  T. Stein,  D. Stuck,  K. S. Thanthiriwatte,
 V. Vanovschi,  L. Vogt,  Tao Wang,  A. Warshel,  M. A. Watson,
 C. F. Williams,  Q. Wu,  X. Xu,  Jun Yang,  W. Zhang,  Yan Zhao

   Please cite Q-Chem as follows:
  "Software for the frontiers of quantum chemistry:
   An overview of developments in the Q-Chem 5 package"
   J. Chem. Phys. 155, 084801 (2021)
   https://doi.org/10.1063/5.0055522 (open access)

 Q-Chem 6.2.0 for Intel X86 EM64T Linux

 Parts of Q-Chem use Armadillo 9.900.5 (Nocturnal Misbehaviour).
 http://arma.sourceforge.net/

 Q-Chem begins on Wed May 29 16:11:52 2024

 Host:
0

     Scratch files written to /data/scratch/water_dimer_adiabatic_eda20240529161054//
 Processing $rem in /home/ymao/my_qchem/qchem_ymao_quick_fix/config/preferences:
 Processing $rem in /home/ymao/.qchemrc:
 The previous job contains 2 fragments; simply inherited here

 Checking the input file for inconsistencies... 	...done.

--------------------------------------------------------------
User input:
--------------------------------------------------------------

$molecule
read
$end

$rem
JOBTYPE  FREQ
GEN_SCFMAN  TRUE
METHOD  WB97X-V
BASIS  DEF2-SVPD
UNRESTRICTED  FALSE
MAX_SCF_CYCLES  2000
THRESH  14
SCF_CONVERGENCE  9
MEM_TOTAL  8000
MEM_STATIC  2000
SCF_GUESS  FRAGMO
SYMMETRY  FALSE
SYM_IGNORE  FALSE
SCF_ALGORITHM  DIIS
BASIS_LIN_DEP_THRESH  6
IDERIV  1
XC_GRID  000075000302
NL_GRID  1
FD_MAT_VEC_PROD  FALSE
GEOM_OPT_TOL_GRADIENT  50
GEOM_OPT_TOL_DISPLACEMENT  50
GEOM_OPT_TOL_ENERGY  10
GEOM_OPT_DRIVER  OPTIMIZE
GEOM_OPT_MAX_CYCLES  200
$end

--------------------------------------------------------------

 Frequency:       134.60                 139.16                 157.34
 Force Cnst:      0.0114                 0.0132                 0.0152
 Red. Mass:       1.0663                 1.1547                 1.0392
 IR Intens:      144.002                228.981                 24.326
 Frequency:       184.22                 337.07                 615.19
 Force Cnst:      0.1030                 0.0728                 0.2327
 Red. Mass:       5.1499                 1.0873                 1.0435
 IR Intens:       55.537                 65.858                110.766
 Frequency:      1591.52                1613.41                3760.38
 Force Cnst:      1.6176                 1.6515                 8.7903
 Red. Mass:       1.0839                 1.0768                 1.0551
 IR Intens:       93.873                 45.238                351.697
 Frequency:      3866.97                3950.83                3971.00
 Force Cnst:      9.2069                 9.8714                10.0601
 Red. Mass:       1.0450                 1.0734                 1.0828
 IR Intens:       15.835                104.313                101.718
 Q-Chem 6.2 (devel), Q-Chem, Inc., Pleasanton, CA (2024)
 Q-Chem 6.2.0 for Intel X86 EM64T Linux
 Q-Chem 6.2 (devel), Q-Chem, Inc., Pleasanton, CA (2024)
 Q-Chem 6.2.0 for Intel X86 EM64T Linux

                    Orbital Energies (a.u.)
 --------------------------------------------------------------

 Alpha MOs
 -- Occupied --
-19.2568 -19.2127  -1.1527  -1.1085  -0.6699  -0.6287  -0.5293  -0.4820
 -0.4520  -0.4101

 Frequency:       113.55                 122.11                 122.85
 Force Cnst:      0.0080                 0.0116                 0.0093
 Red. Mass:       1.0582                 1.3208                 1.0434
 IR Intens:        6.603                170.728                151.200
 Frequency:       151.09                 278.83                 493.24
 Force Cnst:      0.0422                 0.0505                 0.1499
 Red. Mass:       3.1379                 1.1024                 1.0457
 IR Intens:       87.936                 85.252                132.363
 Frequency:      1595.61                1612.98                3863.87
 Force Cnst:      1.6250                 1.6547                 9.2053
 Red. Mass:       1.0833                 1.0795                 1.0465
 IR Intens:       89.158                 57.146                 94.509
 Frequency:      3871.67                3970.35                3973.94
 Force Cnst:      9.2292                10.0401                10.0738
 Red. Mass:       1.0450                 1.0810                 1.0827
 IR Intens:       11.646                146.141                 96.446
 Q-Chem 6.2 (devel), Q-Chem, Inc., Pleasanton, CA (2024)
 Q-Chem 6.2.0 for Intel X86 EM64T Linux
        *  Thank you very much for using Q-Chem.  Have a nice day.  *
 Q-Chem 6.2 (devel), Q-Chem, Inc., Pleasanton, CA (2024)
 Q-Chem 6.2.0 for Intel X86 EM64T Linux
 Total energy in the final basis set =     -152.7038172151
 Total energy in the final basis set =     -152.7038181142
 Total energy in the final basis set =     -152.7038180746
 Total energy in the final basis set =     -152.7038181857
 Total energy in the final basis set =     -152.7038178347
 Total energy in the final basis set =     -152.7038177401
 Total energy in the final basis set =     -152.7038177395
 Total energy in the final basis set =     -152.7038177974
 Total energy in the final basis set =     -152.7038169308
 Total energy in the final basis set =     -152.7038179822
 Total energy in the final basis set =     -152.7038180323
 Total energy in the final basis set =     -152.7038180020
 Total energy in the final basis set =     -152.7038179866
 Total energy in the final basis set =     -152.7038175037
 Total energy in the final basis set =     -152.7038175257

          Ground-State Mulliken Net Atomic Charges

     Atom                 Charge (a.u.)
  ----------------------------------------
      1 O                    -0.272222
      2 H                     0.132805
      3 H                     0.139417
      4 O                    -0.268593
      5 H                     0.134662
      6 H                     0.133931
  ----------------------------------------
  Sum of atomic charges =     0.000000

                    Cartesian Multipole Moments
 -----------------------------------------------------------------
    Charge (ESU x 10^10)
                 0.0000
    Dipole Moment (Debye)
         X       2.2436      Y      -0.2989      Z      -0.0013
       Tot       2.2634
    Quadrupole Moments (Debye-Ang)
        XX     -11.0165     XY       6.3847     YY     -13.2497
        XZ      -0.0026     YZ      -0.0005     ZZ     -12.2628

             Standard Nuclear Orientation (Angstroms)
    I     Atom           X                Y                Z
 ----------------------------------------------------------------
    1      O      -1.6602979038     0.1190212088    -0.0000000000
    2      H      -2.0475995477    -0.7615190439     0.0000000000
    3      H      -0.7071139697    -0.0240553274     0.0000000000
    4      O       1.5230241132    -0.1008629136     0.0000000000
    5      H       1.9264519209     0.3201540050    -0.7663181383
    6      H       1.9264519209     0.3201540050     0.7663181383
 ----------------------------------------------------------------

 Frequency:        94.49                 100.67                 113.58
 Force Cnst:      0.0055                 0.0077                 0.0080
 Red. Mass:       1.0516                 1.2922                 1.0475
 IR Intens:        1.114                168.287                157.150
 Frequency:       136.47                 250.72                 440.80
 Force Cnst:      0.0352                 0.0412                 0.1198
 Red. Mass:       3.2092                 1.1120                 1.0467
 IR Intens:       58.962                109.053                177.742
 Frequency:      1595.90                1610.40                3871.47
 Force Cnst:      1.6253                 1.6507                 9.2308
 Red. Mass:       1.0831                 1.0803                 1.0453
 IR Intens:       87.222                 76.347                  9.226
 Frequency:      3880.44                3975.76                3980.35
 Force Cnst:      9.2715                10.0828                10.1000
 Red. Mass:       1.0451                 1.0827                 1.0820
 IR Intens:       11.660                 79.384                 83.259

 STANDARD THERMODYNAMIC QUANTITIES AT   298.15 K  AND     1.00 ATM

   This Molecule has  0 Imaginary Frequencies
   Zero point vibrational energy:       28.664 kcal/mol

   Atom    1 Element O  Has Mass   15.99491
   Atom    2 Element H  Has Mass    1.00783
   Atom    3 Element H  Has Mass    1.00783
   Atom    4 Element O  Has Mass   15.99491
   Atom    5 Element H  Has Mass    1.00783
   Atom    6 Element H  Has Mass    1.00783
   Molecular Mass:    36.021140 amu
   Principal axes and moments of inertia in amu*Bohr^2:
                             1           2           3
    Eigenvalues --        8.14272   337.64649   337.95779
          X               0.99955     0.00000    -0.03013
          Y              -0.03013     0.00000    -0.99955
          Z               0.00000     1.00000     0.00000
   Rotational Symmetry Number is   1
   The Molecule is an Asymmetric Top
   Translational Enthalpy:        0.889 kcal/mol
   Rotational Enthalpy:           0.889 kcal/mol
   Vibrational Enthalpy:         30.935 kcal/mol
   gas constant (RT):             0.592 kcal/mol
   Translational Entropy:        36.674  cal/mol.K
   Rotational Entropy:           21.457  cal/mol.K
   Vibrational Entropy:          15.631  cal/mol.K

   Total Enthalpy:               33.305 kcal/mol
   Total Entropy:                73.762  cal/mol.K

 Total job time:  634.72s(wall), 764.09s(cpu)
        *  Thank you very much for using Q-Chem.  Have a nice day.  *
