 Q-Chem 6.2, Q-Chem, Inc., Pleasanton, CA (2024)
 Q-Chem 6.2.0 for Intel X86 EM64T Linux

User input:
--------------------------------------------------------------
$molecule
0 1
O    0.0000000000   0.0000000000   0.1177926773
H   -0.7650869966   0.0000000000  -0.4662899263
H    0.7650869966   0.0000000000  -0.4662899263
$end

$rem
BASIS  =  def2-TZVPPD
GUI  =  2
JOB_TYPE  =  SP
METHOD  =  wB97XV
SCF_CONVERGENCE  =  8
POINT_GROUP_SYMMETRY  FALSE
ESP_GRID  -1
MAKE_CUBE_FILES  TRUE
PLOTS     TRUE
GUI       2
$end

$plots
grid_points  100 100 100
$end
--------------------------------------------------------------

             Standard Nuclear Orientation (Angstroms)
    I     Atom           X                Y                Z
 ----------------------------------------------------------------
    1      O       0.0000000000     0.0000000000     0.1177926773
    2      H      -0.7650869966     0.0000000000    -0.4662899263
    3      H       0.7650869966     0.0000000000    -0.4662899263
 ----------------------------------------------------------------

   10     -76.4355208528      6.54e-09  Convergence criterion met
 Total energy =   -76.43552085

                    Orbital Energies (a.u.)
 --------------------------------------------------------------

 Alpha MOs
 -- Occupied --
-19.2183  -1.1435  -0.6471  -0.5047  -0.4299

          Ground-State Mulliken Net Atomic Charges

     Atom                 Charge (a.u.)
  ----------------------------------------
      1 O                    -0.353662
      2 H                     0.176831
      3 H                     0.176831
  ----------------------------------------
  Sum of atomic charges =     0.000000

                    Cartesian Multipole Moments
 -----------------------------------------------------------------
    Charge (ESU x 10^10)
                -0.0000
    Dipole Moment (Debye)
         X      -0.0000      Y       0.0000      Z      -1.8676
       Tot       1.8676
    Quadrupole Moments (Debye-Ang)
        XX      -4.4113     XY      -0.0000     YY      -7.7921
        XZ      -0.0000     YZ       0.0000     ZZ      -6.4660

 Total job time:  13.84s(wall), 110.56s(cpu)
        *  Thank you very much for using Q-Chem.  Have a nice day.  *
