 Q-Chem 6.2, Q-Chem, Inc., Pleasanton, CA (2024)
 Q-Chem 6.2.0 for Intel X86 EM64T Linux

User input:
--------------------------------------------------------------
$molecule
0 1
--
0 1
O    2.77773    -0.01318   0.00000
H    3.35837    -0.00196   -0.76769
H    3.35837    -0.00196   0.76769
--
0 1
H    0.59878    -0.04551   0.00000
C    -0.49895   -0.00740   0.00000
F    -1.02270   -1.24292   0.00000
F    -0.95441   0.63633    1.08615
F    -0.95441   0.63633    -1.08615
$end

$rem
JOBTYPE  OPT
GEN_SCFMAN  TRUE
METHOD  B3LYP
DFT_D  D3_BJ
BASIS  DEF2-SVPD
UNRESTRICTED  FALSE
MAX_SCF_CYCLES  2000
THRESH  14
SCF_CONVERGENCE  9
MEM_TOTAL  8000
MEM_STATIC  2000
SCF_GUESS  FRAGMO
SYMMETRY  FALSE
SYM_IGNORE  FALSE
SCF_ALGORITHM  DIIS
BASIS_LIN_DEP_THRESH  6
IDERIV  1
XC_GRID  000075000302
NL_GRID  1
FD_MAT_VEC_PROD  FALSE
GEOM_OPT_TOL_GRADIENT  50
GEOM_OPT_TOL_DISPLACEMENT  50
GEOM_OPT_TOL_ENERGY  10
GEOM_OPT_DRIVER  OPTIMIZE
GEOM_OPT_MAX_CYCLES  200
$end

--------------------------------------------------------------

   10    -414.3957071800      9.48e-10  Convergence criterion met
 Total energy =  -414.39570718
    9    -414.3957314355      9.26e-10  Convergence criterion met
 Total energy =  -414.39573144
    9    -414.3957379155      3.05e-10  Convergence criterion met
 Total energy =  -414.39573792
    8    -414.3957396378      3.94e-10  Convergence criterion met
 Total energy =  -414.39573964
    9    -414.3957415615      3.79e-10  Convergence criterion met
 Total energy =  -414.39574156
    8    -414.3957415840      2.28e-10  Convergence criterion met
 Total energy =  -414.39574158
 Final energy is   -414.395741584013
 **  OPTIMIZATION CONVERGED  **
 Total job time:  27.19s(wall), 383.15s(cpu)
        *  Thank you very much for using Q-Chem.  Have a nice day.  *
 Q-Chem 6.2, Q-Chem, Inc., Pleasanton, CA (2024)
 Q-Chem 6.2.0 for Intel X86 EM64T Linux

User input:
--------------------------------------------------------------

$molecule
read
$end

$rem
JOBTYPE  FREQ
GEN_SCFMAN  TRUE
METHOD  B3LYP
DFT_D  D3_BJ
BASIS  DEF2-SVPD
UNRESTRICTED  FALSE
MAX_SCF_CYCLES  2000
THRESH  14
SCF_CONVERGENCE  9
MEM_TOTAL  8000
MEM_STATIC  2000
SCF_GUESS  FRAGMO
SYMMETRY  FALSE
SYM_IGNORE  FALSE
SCF_ALGORITHM  DIIS
BASIS_LIN_DEP_THRESH  6
IDERIV  1
XC_GRID  000075000302
NL_GRID  1
FD_MAT_VEC_PROD  FALSE
GEOM_OPT_TOL_GRADIENT  50
GEOM_OPT_TOL_DISPLACEMENT  50
GEOM_OPT_TOL_ENERGY  10
GEOM_OPT_DRIVER  OPTIMIZE
GEOM_OPT_MAX_CYCLES  200
$end

--------------------------------------------------------------

   10    -414.3957415767      9.92e-10  Convergence criterion met
 Total energy =  -414.39574158
 Frequency:         5.79                  41.56                  51.56
 Force Cnst:      0.0001                 0.0060                 0.0017
 Red. Mass:       4.1261                 5.9161                 1.0584
 IR Intens:        1.390                  2.015                  0.039
 Frequency:       115.99                 175.96                 197.95
 Force Cnst:      0.0537                 0.0220                 0.0287
 Red. Mass:       6.7702                 1.2039                 1.2425
 IR Intens:        1.217                 64.933                235.015
 Frequency:       500.63                 501.04                 688.63
 Force Cnst:      2.0768                 2.0850                 3.7931
 Red. Mass:      14.0644                14.0965                13.5761
 IR Intens:        2.175                  1.912                 19.783
 Frequency:      1119.93                1120.92                1121.09
 Force Cnst:      5.9832                 5.1045                 5.2072
 Red. Mass:       8.0966                 6.8953                 7.0320
 IR Intens:      137.418                311.301                312.135
 Frequency:      1401.39                1408.60                1594.62
 Force Cnst:      1.3535                 1.3612                 1.6251
 Red. Mass:       1.1697                 1.1644                 1.0847
 IR Intens:       31.345                 31.134                 77.909
 Frequency:      3164.32                3822.11                3926.45
 Force Cnst:      6.4611                 8.9899                 9.8359
 Red. Mass:       1.0952                 1.0445                 1.0828
 IR Intens:       12.542                 14.877                 92.929
 Q-Chem 6.2, Q-Chem, Inc., Pleasanton, CA (2024)
 Q-Chem 6.2.0 for Intel X86 EM64T Linux

User input:
--------------------------------------------------------------

$molecule
read
$end

$rem
JOBTYPE  OPT
GEN_SCFMAN  TRUE
POL_GEOM  TRUE
METHOD  B3LYP
DFT_D  D3_BJ
BASIS  DEF2-SVPD
UNRESTRICTED  FALSE
MAX_SCF_CYCLES  2000
THRESH  14
SCF_CONVERGENCE  9
MEM_TOTAL  8000
MEM_STATIC  2000
SCF_GUESS  FRAGMO
SYMMETRY  FALSE
SYM_IGNORE  FALSE
SCF_ALGORITHM  DIIS
BASIS_LIN_DEP_THRESH  6
IDERIV  1
SCFMI_MODE  0
XC_GRID  000075000302
NL_GRID  1
FD_MAT_VEC_PROD  FALSE
GEOM_OPT_TOL_GRADIENT  50
GEOM_OPT_TOL_DISPLACEMENT  50
GEOM_OPT_TOL_ENERGY  10
GEOM_OPT_DRIVER  OPTIMIZE
GEOM_OPT_MAX_CYCLES  200
$end

--------------------------------------------------------------

 Q-Chem 6.2, Q-Chem, Inc., Pleasanton, CA (2024)
 Q-Chem 6.2.0 for Intel X86 EM64T Linux

                    Orbital Energies (a.u.)
 --------------------------------------------------------------

 Alpha MOs
 -- Occupied --
-24.7326 -24.7324 -24.7323 -19.1746 -10.4363  -1.3033  -1.2140  -1.2137
 -1.0282  -0.7126  -0.6076  -0.5976  -0.5974  -0.5632  -0.4768  -0.4767
 -0.4410  -0.4408  -0.4278  -0.4193  -0.3928  -0.3465

 Frequency:        -6.79                  17.43                  45.25
 Force Cnst:      0.0001                 0.0010                 0.0012
 Red. Mass:       5.0719                 5.8020                 1.0208
 IR Intens:        0.935                  2.073                  0.470
 Frequency:        88.34                 128.98                 146.76
 Force Cnst:      0.0313                 0.0122                 0.0151
 Red. Mass:       6.8060                 1.2443                 1.1860
 IR Intens:        0.476                231.631                 68.354
 Frequency:       500.81                 501.07                 689.77
 Force Cnst:      2.0634                 2.0686                 3.8249
 Red. Mass:      13.9634                13.9838                13.6449
 IR Intens:        1.962                  1.919                 17.079
 Frequency:      1124.57                1124.62                1124.84
 Force Cnst:      4.9030                 4.9517                 6.0931
 Red. Mass:       6.5801                 6.6450                 8.1735
 IR Intens:      300.680                309.987                129.169
 Frequency:      1385.72                1391.78                1587.64
 Force Cnst:      1.3409                 1.3462                 1.6088
 Red. Mass:       1.1852                 1.1796                 1.0833
 IR Intens:       34.214                 32.951                 81.512
 Frequency:      3192.30                3821.47                3923.97
 Force Cnst:      6.5575                 8.9905                 9.8221
 Red. Mass:       1.0921                 1.0449                 1.0827
 IR Intens:        0.039                 13.318                 88.794
 Q-Chem 6.2, Q-Chem, Inc., Pleasanton, CA (2024)
 Q-Chem 6.2.0 for Intel X86 EM64T Linux
        *  Thank you very much for using Q-Chem.  Have a nice day.  *
 Q-Chem 6.2, Q-Chem, Inc., Pleasanton, CA (2024)
 Q-Chem 6.2.0 for Intel X86 EM64T Linux
 Total energy in the final basis set =     -414.3927440945
 Total energy in the final basis set =     -414.3927446305
 Total energy in the final basis set =     -414.3927445413
 Total energy in the final basis set =     -414.3927445868
 Total energy in the final basis set =     -414.3927452391
 Total energy in the final basis set =     -414.3927452382
 Total energy in the final basis set =     -414.3927448222
 Total energy in the final basis set =     -414.3927448374
 Total energy in the final basis set =     -414.3927453022
 Total energy in the final basis set =     -414.3927452620
 Total energy in the final basis set =     -414.3927452614
 Total energy in the final basis set =     -414.3927451713
 Total energy in the final basis set =     -414.3927451751
 Total energy in the final basis set =     -414.3927449387
 Total energy in the final basis set =     -414.3927449357

          Ground-State Mulliken Net Atomic Charges

     Atom                 Charge (a.u.)
  ----------------------------------------
      1 O                    -0.236579
      2 H                     0.118290
      3 H                     0.118290
      4 H                    -0.346669
      5 C                     1.444251
      6 F                    -0.365912
      7 F                    -0.365504
      8 F                    -0.366167
  ----------------------------------------
  Sum of atomic charges =     0.000000

                    Cartesian Multipole Moments
 -----------------------------------------------------------------
    Charge (ESU x 10^10)
                -0.0000
    Dipole Moment (Debye)
         X       3.5701      Y       0.0089      Z       0.0037
       Tot       3.5701
    Quadrupole Moments (Debye-Ang)
        XX     -17.0010     XY       0.1708     YY     -30.4942
        XZ      -0.0034     YZ       0.0023     ZZ     -27.1737

             Standard Nuclear Orientation (Angstroms)
    I     Atom           X                Y                Z
 ----------------------------------------------------------------
    1      O       2.9854359274    -0.0227774724    -0.0000000000
    2      H       3.5687287322     0.0004535560    -0.7673486516
    3      H       3.5687287322     0.0004535560     0.7673486516
    4      H       0.5260483894    -0.0501047376    -0.0000000000
    5      C      -0.5685384788    -0.0081512129    -0.0000000000
    6      F      -1.0911179625    -1.2451635459    -0.0000000000
    7      F      -1.0175389299     0.6381553664     1.0883891858
    8      F      -1.0175389299     0.6381553664    -1.0883891858
 ----------------------------------------------------------------

 Frequency:       -14.18                   8.98                  44.38
 Force Cnst:      0.0006                 0.0003                 0.0012
 Red. Mass:       5.2582                 5.8499                 1.0216
 IR Intens:        0.656                  1.624                  0.695
 Frequency:        80.14                 118.78                 139.35
 Force Cnst:      0.0258                 0.0103                 0.0134
 Red. Mass:       6.8110                 1.2415                 1.1743
 IR Intens:        0.006                239.895                 78.939
 Frequency:       501.02                 501.21                 690.47
 Force Cnst:      2.0607                 2.0644                 3.8377
 Red. Mass:      13.9331                13.9478                13.6627
 IR Intens:        2.122                  2.134                 13.099
 Frequency:      1126.72                1126.74                1127.41
 Force Cnst:      4.7977                 4.8775                 6.2246
 Red. Mass:       6.4143                 6.5208                 8.3119
 IR Intens:      317.036                318.334                 94.373
 Frequency:      1381.67                1386.57                1587.59
 Force Cnst:      1.3379                 1.3420                 1.6086
 Red. Mass:       1.1895                 1.1847                 1.0832
 IR Intens:       33.797                 32.078                 80.937
 Frequency:      3191.84                3821.53                3924.77
 Force Cnst:      6.5511                 8.9905                 9.8262
 Red. Mass:       1.0914                 1.0449                 1.0827
 IR Intens:       17.446                  6.773                 75.351

 STANDARD THERMODYNAMIC QUANTITIES AT   298.15 K  AND     1.00 ATM

   This Molecule has  1 Imaginary Frequencies
   Zero point vibrational energy:       29.677 kcal/mol

   Atom    1 Element O  Has Mass   15.99491
   Atom    2 Element H  Has Mass    1.00783
   Atom    3 Element H  Has Mass    1.00783
   Atom    4 Element H  Has Mass    1.00783
   Atom    5 Element C  Has Mass   12.00000
   Atom    6 Element F  Has Mass   18.99840
   Atom    7 Element F  Has Mass   18.99840
   Atom    8 Element F  Has Mass   18.99840
   Molecular Mass:    88.013600 amu
   Principal axes and moments of inertia in amu*Bohr^2:
                             1           2           3
    Eigenvalues --      325.46213   992.68104   997.16771
          X              -1.00000     0.00000     0.00049
          Y              -0.00049     0.00000    -1.00000
          Z              -0.00000     1.00000     0.00000
   Rotational Symmetry Number is   1
   The Molecule is an Asymmetric Top
   Translational Enthalpy:        0.889 kcal/mol
   Rotational Enthalpy:           0.889 kcal/mol
   Vibrational Enthalpy:         32.535 kcal/mol
   gas constant (RT):             0.592 kcal/mol
   Translational Entropy:        39.337  cal/mol.K
   Rotational Entropy:           27.268  cal/mol.K
   Vibrational Entropy:          24.941  cal/mol.K

   Total Enthalpy:               34.905 kcal/mol
   Total Entropy:                91.546  cal/mol.K

 Total job time:  342.57s(wall), 1008.04s(cpu)
        *  Thank you very much for using Q-Chem.  Have a nice day.  *
