 Q-Chem 6.2, Q-Chem, Inc., Pleasanton, CA (2024)
 Q-Chem 6.2.0 for Intel X86 EM64T Linux

User input:
--------------------------------------------------------------
$molecule
0 1
H    0.59878    -0.04551   0.00000
C    -0.49895   -0.00740   0.00000
F    -1.02270   -1.24292   0.00000
F    -0.95441   0.63633    1.08615
F    -0.95441   0.63633    -1.08615
$end

$rem
JOBTYPE  OPT
GEN_SCFMAN  TRUE
METHOD  B3LYP
DFT_D  D3_BJ
BASIS  DEF2-SVPD
UNRESTRICTED  FALSE
MAX_SCF_CYCLES  2000
THRESH  14
SCF_CONVERGENCE  9
MEM_TOTAL  8000
MEM_STATIC  2000
SYMMETRY  FALSE
SYM_IGNORE  FALSE
SCF_ALGORITHM  DIIS
BASIS_LIN_DEP_THRESH  6
IDERIV  1
XC_GRID  000075000302
NL_GRID  1
FD_MAT_VEC_PROD  FALSE
GEOM_OPT_TOL_GRADIENT  50
GEOM_OPT_TOL_DISPLACEMENT  50
GEOM_OPT_TOL_ENERGY  10
GEOM_OPT_DRIVER  OPTIMIZE
GEOM_OPT_MAX_CYCLES  200
$end

--------------------------------------------------------------

   12    -338.0077180110      1.31e-10  Convergence criterion met
 Total energy =  -338.00771801
   10    -338.0077627195      2.40e-10  Convergence criterion met
 Total energy =  -338.00776272
   10    -338.0078088274      1.60e-10  Convergence criterion met
 Total energy =  -338.00780883
    8    -338.0078089021      1.79e-10  Convergence criterion met
 Total energy =  -338.00780890
 Final energy is   -338.007808902129
 **  OPTIMIZATION CONVERGED  **
 Total job time:  13.76s(wall), 109.60s(cpu)
        *  Thank you very much for using Q-Chem.  Have a nice day.  *
 Q-Chem 6.2, Q-Chem, Inc., Pleasanton, CA (2024)
 Q-Chem 6.2.0 for Intel X86 EM64T Linux

User input:
--------------------------------------------------------------

$molecule
read
$end

$rem
JOBTYPE  FREQ
GEN_SCFMAN  TRUE
METHOD  B3LYP
DFT_D  D3_BJ
BASIS  DEF2-SVPD
UNRESTRICTED  FALSE
MAX_SCF_CYCLES  2000
THRESH  14
SCF_CONVERGENCE  9
MEM_TOTAL  8000
MEM_STATIC  2000
SYMMETRY  FALSE
SYM_IGNORE  FALSE
SCF_ALGORITHM  DIIS
BASIS_LIN_DEP_THRESH  6
IDERIV  1
XC_GRID  000075000302
NL_GRID  1
FD_MAT_VEC_PROD  FALSE
GEOM_OPT_TOL_GRADIENT  50
GEOM_OPT_TOL_DISPLACEMENT  50
GEOM_OPT_TOL_ENERGY  10
GEOM_OPT_DRIVER  OPTIMIZE
GEOM_OPT_MAX_CYCLES  200
$end
--------------------------------------------------------------

   12    -338.0078088710      1.35e-10  Convergence criterion met
 Total energy =  -338.00780887
    8    -338.0078082668      9.89e-11  Convergence criterion met
 Total energy =  -338.00780827
    8    -338.0078082355      2.15e-10  Convergence criterion met
 Total energy =  -338.00780824
 Total energy =  -338.00780827
    9    -338.0078087348      2.12e-10  Convergence criterion met
 Total energy =  -338.00780873
    9    -338.0078087005      1.70e-10  Convergence criterion met
 Total energy =  -338.00780870
    9    -338.0078086746      2.53e-10  Convergence criterion met
 Total energy =  -338.00780867
    8    -338.0078085781      8.57e-10  Convergence criterion met
 Total energy =  -338.00780858
    9    -338.0078086431      2.71e-10  Convergence criterion met
 Total energy =  -338.00780864
    9    -338.0078083266      2.36e-10  Convergence criterion met
 Total energy =  -338.00780833
    9    -338.0078083988      3.23e-10  Convergence criterion met
 Total energy =  -338.00780840

                    Orbital Energies (a.u.)
 --------------------------------------------------------------

 Alpha MOs
 -- Occupied --
-24.7481 -24.7479 -24.7479 -10.4567  -1.3203  -1.2306  -1.2303  -0.7292
 -0.6257  -0.6139  -0.6138  -0.4919  -0.4918  -0.4565  -0.4564  -0.4343
 -0.4159

          Ground-State Mulliken Net Atomic Charges

     Atom                 Charge (a.u.)
  ----------------------------------------
      1 H                    -0.343854
      2 C                     1.435744
      3 F                    -0.364165
      4 F                    -0.363527
      5 F                    -0.364199
  ----------------------------------------
  Sum of atomic charges =     0.000000

                    Cartesian Multipole Moments
 -----------------------------------------------------------------
    Charge (ESU x 10^10)
                 0.0000
    Dipole Moment (Debye)
         X       1.6543      Y       0.0012      Z       0.0037
       Tot       1.6543
    Quadrupole Moments (Debye-Ang)
        XX     -18.9422     XY       0.0000     YY     -22.6599
        XZ      -0.0001     YZ       0.0023     ZZ     -22.6570

             Standard Nuclear Orientation (Angstroms)
    I     Atom           X                Y                Z
 ----------------------------------------------------------------
    1      H       1.4369034786    -0.0000116542    -0.0000000000
    2      C       0.3384126898    -0.0000028979    -0.0000000000
    3      F      -0.1284230213    -1.2564697546     0.0000000000
    4      F      -0.1284206903     0.6282364907     1.0881688845
    5      F      -0.1284206903     0.6282364907    -1.0881688845
 ----------------------------------------------------------------

 Frequency:       501.86                 502.01                 692.98
 Force Cnst:      2.0526                 2.0542                 3.8476
 Red. Mass:      13.8316                13.8345                13.5988
 IR Intens:        1.979                  1.965                 13.067
 Frequency:      1130.77                1135.53                1135.71
 Force Cnst:      6.3543                 4.5357                 4.5329
 Red. Mass:       8.4347                 5.9703                 5.9648
 IR Intens:       96.483                309.154                309.005
 Frequency:      1370.66                1370.70                3136.79
 Force Cnst:      1.3378                 1.3376                 6.3197
 Red. Mass:       1.2086                 1.2084                 1.0901
 IR Intens:       39.589                 39.533                 23.838

 STANDARD THERMODYNAMIC QUANTITIES AT   298.15 K  AND     1.00 ATM

   This Molecule has  0 Imaginary Frequencies
   Zero point vibrational energy:       15.692 kcal/mol

   Atom    1 Element H  Has Mass    1.00783
   Atom    2 Element C  Has Mass   12.00000
   Atom    3 Element F  Has Mass   18.99840
   Atom    4 Element F  Has Mass   18.99840
   Atom    5 Element F  Has Mass   18.99840
   Molecular Mass:    70.003030 amu
   Principal axes and moments of inertia in amu*Bohr^2:
                             1           2           3
    Eigenvalues --      176.18916   176.19898   321.33209
          X               0.00000     0.00000    -1.00000
          Y               0.00000     1.00000     0.00000
          Z               1.00000    -0.00000     0.00000
   Rotational Symmetry Number is   1
   The Molecule is an Asymmetric Top
   Translational Enthalpy:        0.889 kcal/mol
   Rotational Enthalpy:           0.889 kcal/mol
   Vibrational Enthalpy:         16.096 kcal/mol
   gas constant (RT):             0.592 kcal/mol
   Translational Entropy:        38.655  cal/mol.K
   Rotational Entropy:           23.815  cal/mol.K
   Vibrational Entropy:           1.824  cal/mol.K

   Total Enthalpy:               18.466 kcal/mol
   Total Entropy:                64.295  cal/mol.K

 Total job time:  68.74s(wall), 549.31s(cpu)
        *  Thank you very much for using Q-Chem.  Have a nice day.  *
