 Q-Chem 6.2, Q-Chem, Inc., Pleasanton, CA (2024)
 Q-Chem 6.2.0 for Intel X86 EM64T Linux

User input:
--------------------------------------------------------------
$molecule
0 1
Si      0.0001887359     0.0003470093     0.3792872377
C       1.6089105553    -0.7747831455    -0.2261681341
C      -0.1335670331     1.7811480953    -0.2259729615
C      -1.4751140863    -1.0059887548    -0.2261190550
H      -0.0000730053     0.0001833530     1.8795843690
H       1.6465883081    -0.7926652860    -1.3280164316
H       1.7118689047    -1.8127188795     0.1290623992
H       2.4854917124    -0.2100096094     0.1298007917
H       0.7124399537     2.3904004142     0.1305541694
H      -1.0622887210     2.2557732021     0.1293871399
H      -0.1362961602     1.8230835411    -1.3277752674
H      -1.5101884129    -1.0301005447    -1.3279447130
H      -2.4254928100    -0.5769059247     0.1298384398
H      -1.4225627227    -2.0473462151     0.1300727985
$end

$rem
JOBTYPE  OPT
GEN_SCFMAN  TRUE
METHOD  B3LYP
DFT_D  D3_BJ
BASIS  DEF2-SVPD
UNRESTRICTED  FALSE
MAX_SCF_CYCLES  2000
THRESH  14
SCF_CONVERGENCE  9
MEM_TOTAL  8000
MEM_STATIC  2000
SYMMETRY  FALSE
SYM_IGNORE  FALSE
SCF_ALGORITHM  DIIS
BASIS_LIN_DEP_THRESH  6
IDERIV  1
XC_GRID  000075000302
NL_GRID  1
FD_MAT_VEC_PROD  FALSE
GEOM_OPT_TOL_GRADIENT  50
GEOM_OPT_TOL_DISPLACEMENT  50
GEOM_OPT_TOL_ENERGY  10
GEOM_OPT_DRIVER  OPTIMIZE
GEOM_OPT_MAX_CYCLES  200
$end

--------------------------------------------------------------

   12    -409.7315050445      5.38e-10  Convergence criterion met
 Total energy =  -409.73150504
   10    -409.7315232943      4.97e-11  Convergence criterion met
 Total energy =  -409.73152329
    8    -409.7315237979      3.52e-10  Convergence criterion met
 Total energy =  -409.73152380
    8    -409.7315239304      3.42e-10  Convergence criterion met
 Total energy =  -409.73152393
    7    -409.7315239431      2.75e-10  Convergence criterion met
 Total energy =  -409.73152394
 Final energy is   -409.731523943129
 **  OPTIMIZATION CONVERGED  **
 Total job time:  41.01s(wall), 654.33s(cpu)
        *  Thank you very much for using Q-Chem.  Have a nice day.  *
 Q-Chem 6.2, Q-Chem, Inc., Pleasanton, CA (2024)
 Q-Chem 6.2.0 for Intel X86 EM64T Linux

User input:
--------------------------------------------------------------

$molecule
read
$end

$rem
JOBTYPE  FREQ
GEN_SCFMAN  TRUE
METHOD  B3LYP
DFT_D  D3_BJ
BASIS  DEF2-SVPD
UNRESTRICTED  FALSE
MAX_SCF_CYCLES  2000
THRESH  14
SCF_CONVERGENCE  9
MEM_TOTAL  8000
MEM_STATIC  2000
SYMMETRY  FALSE
SYM_IGNORE  FALSE
SCF_ALGORITHM  DIIS
BASIS_LIN_DEP_THRESH  6
XC_GRID  000075000302
NL_GRID  1
FD_MAT_VEC_PROD  FALSE
GEOM_OPT_TOL_GRADIENT  50
GEOM_OPT_TOL_DISPLACEMENT  50
GEOM_OPT_TOL_ENERGY  10
GEOM_OPT_DRIVER  OPTIMIZE
GEOM_OPT_MAX_CYCLES  200
$end
--------------------------------------------------------------

             Standard Nuclear Orientation (Angstroms)
    I     Atom           X                Y                Z
 ----------------------------------------------------------------
    1      Si     -0.0004927745    -0.0005596748     0.3817969144
    2      C       1.3115385904    -1.2145372260    -0.2243294222
    3      C       0.3972758632     1.7424604087    -0.2240370881
    4      C      -1.7083132057    -0.5272623491    -0.2245689085
    5      H      -0.0003930237    -0.0007667203     1.8785922363
    6      H       1.3388773149    -1.2452743499    -1.3246483552
    7      H       1.1091164968    -2.2348453533     0.1346531842
    8      H       2.3137927490    -0.9273339465     0.1277797596
    9      H       1.3850740736     2.0725727287     0.1311382807
   10      H      -0.3479227116     2.4695966297     0.1322048755
   11      H       0.4058046210     1.7828500455    -1.3244128740
   12      H      -1.7473664110    -0.5383099111    -1.3248924625
   13      H      -2.4883947482     0.1622278252     0.1317410020
   14      H      -1.9646970050    -1.5368465024     0.1303000652
 ----------------------------------------------------------------

   12    -409.7315254605      5.09e-10  Convergence criterion met
 Total energy =  -409.73152546

                    Orbital Energies (a.u.)
 --------------------------------------------------------------

 Alpha MOs
 -- Occupied --
-66.1050 -10.1675 -10.1674 -10.1674  -5.2680  -3.6302  -3.6297  -3.6297
 -0.7088  -0.6730  -0.6729  -0.4767  -0.4200  -0.4096  -0.4096  -0.3929
 -0.3929  -0.3835  -0.3117  -0.3069  -0.3068

          Ground-State Mulliken Net Atomic Charges

     Atom                 Charge (a.u.)
  ----------------------------------------
      1 Si                   -0.233978
      2 C                     0.387628
      3 C                     0.387823
      4 C                     0.387509
      5 H                     0.252893
      6 H                    -0.116686
      7 H                    -0.139293
      8 H                    -0.138051
      9 H                    -0.138541
     10 H                    -0.139116
     11 H                    -0.116376
     12 H                    -0.116986
     13 H                    -0.138079
     14 H                    -0.138747
  ----------------------------------------
  Sum of atomic charges =     0.000000

                    Cartesian Multipole Moments
 -----------------------------------------------------------------
    Charge (ESU x 10^10)
                -0.0000
    Dipole Moment (Debye)
         X      -0.0013      Y      -0.0014      Z      -0.5335
       Tot       0.5335
    Quadrupole Moments (Debye-Ang)
        XX     -36.1192     XY      -0.0003     YY     -36.1207
        XZ       0.0002     YZ       0.0005     ZZ     -37.0720

 Frequency:       128.24                 155.81                 163.52
 Force Cnst:      0.0098                 0.0150                 0.0165
 Red. Mass:       1.0113                 1.0484                 1.0489
 IR Intens:        0.000                  0.001                  0.003
 Frequency:       196.53                 199.00                 231.55
 Force Cnst:      0.0507                 0.0514                 0.0734
 Red. Mass:       2.2278                 2.2035                 2.3238
 IR Intens:        0.922                  0.917                  1.716
 Frequency:       601.49                 603.09                 612.59
 Force Cnst:      0.2273                 0.2284                 0.7429
 Red. Mass:       1.0663                 1.0657                 3.3598
 IR Intens:        9.015                  8.865                  1.706
 Frequency:       662.33                 702.01                 703.49
 Force Cnst:      0.3021                 0.8598                 0.8622
 Red. Mass:       1.1687                 2.9612                 2.9569
 IR Intens:        0.005                 11.906                 11.863
 Frequency:       833.73                 834.24                 856.65
 Force Cnst:      0.5795                 0.5828                 0.6771
 Red. Mass:       1.4149                 1.4213                 1.5660
 IR Intens:       17.753                 18.647                 59.157
 Frequency:       906.52                 906.77                1256.22
 Force Cnst:      0.6347                 0.6354                 1.1788
 Red. Mass:       1.3108                 1.3116                 1.2678
 IR Intens:      155.392                155.964                 32.819
 Frequency:      1257.75                1265.78                1419.62
 Force Cnst:      1.1804                 1.1690                 1.2506
 Red. Mass:       1.2664                 1.2384                 1.0533
 IR Intens:       32.589                  6.697                  0.002
 Frequency:      1422.57                1422.94                1431.53
 Force Cnst:      1.2524                 1.2527                 1.2645
 Red. Mass:       1.0504                 1.0501                 1.0473
 IR Intens:        0.013                  0.023                  2.689
 Frequency:      1432.11                1439.38                2182.72
 Force Cnst:      1.2654                 1.2750                 2.9191
 Red. Mass:       1.0472                 1.0445                 1.0399
 IR Intens:        2.693                  8.836                159.568
 Frequency:      3019.54                3019.80                3020.08
 Force Cnst:      5.5638                 5.5647                 5.5656
 Red. Mass:       1.0357                 1.0357                 1.0357
 IR Intens:        7.085                  6.775                  3.544
 Frequency:      3099.35                3099.81                3101.35
 Force Cnst:      6.2321                 6.2341                 6.2366
 Red. Mass:       1.1011                 1.1012                 1.1005
 IR Intens:        1.387                  1.588                 28.423
 Frequency:      3104.58                3105.07                3105.32
 Force Cnst:      6.2538                 6.2549                 6.2559
 Red. Mass:       1.1013                 1.1011                 1.1011
 IR Intens:        0.877                 17.447                 16.805

 STANDARD THERMODYNAMIC QUANTITIES AT   298.15 K  AND     1.00 ATM

   This Molecule has  0 Imaginary Frequencies
   Zero point vibrational energy:       73.627 kcal/mol

   Atom    1 Element Si Has Mass   27.97693
   Atom    2 Element C  Has Mass   12.00000
   Atom    3 Element C  Has Mass   12.00000
   Atom    4 Element C  Has Mass   12.00000
   Atom    5 Element H  Has Mass    1.00783
   Atom    6 Element H  Has Mass    1.00783
   Atom    7 Element H  Has Mass    1.00783
   Atom    8 Element H  Has Mass    1.00783
   Atom    9 Element H  Has Mass    1.00783
   Atom   10 Element H  Has Mass    1.00783
   Atom   11 Element H  Has Mass    1.00783
   Atom   12 Element H  Has Mass    1.00783
   Atom   13 Element H  Has Mass    1.00783
   Atom   14 Element H  Has Mass    1.00783
   Molecular Mass:    74.055230 amu
   Principal axes and moments of inertia in amu*Bohr^2:
                             1           2           3
    Eigenvalues --      343.34428   343.75224   581.15405
          X              -1.00000    -0.00286     0.00000
          Y              -0.00286     1.00000    -0.00000
          Z               0.00000     0.00000     1.00000
   Rotational Symmetry Number is   1
   The Molecule is an Asymmetric Top
   Translational Enthalpy:        0.889 kcal/mol
   Rotational Enthalpy:           0.889 kcal/mol
   Vibrational Enthalpy:         76.631 kcal/mol
   gas constant (RT):             0.592 kcal/mol
   Translational Entropy:        38.823  cal/mol.K
   Rotational Entropy:           25.731  cal/mol.K
   Vibrational Entropy:          17.529  cal/mol.K

   Total Enthalpy:               79.001 kcal/mol
   Total Entropy:                82.083  cal/mol.K

 Total job time:  228.98s(wall), 3637.29s(cpu)
        *  Thank you very much for using Q-Chem.  Have a nice day.  *
