 Q-Chem 6.2, Q-Chem, Inc., Pleasanton, CA (2024)
 Q-Chem 6.2.0 for Intel X86 EM64T Linux

User input:
--------------------------------------------------------------
$molecule
0 1
--
0 1
H    0.03437    -0.05888   0.02542
Si   0.00790    -0.01350   1.51767
C    1.77703    0.00779    2.12478
H    2.31300    -0.88897   1.81674
H    2.31708    0.87123    1.73898
H    1.80646    0.05495    3.21325
C    -0.89705   1.54226    2.02410
H    -0.39498   2.43123    1.64570
H    -0.94260   1.62044    3.11008
H    -1.91797   1.54537    1.64561
C    -0.88532   -1.54080   2.12463
H    -0.94093   -1.54313   3.21309
H    -0.37080   -2.45002   1.81656
H    -1.90283   -1.58331   1.73875
--
0 1
I    1.16661    -2.00485   -1.55457
C    1.99354    -3.42611   -2.68666
N    2.48051    -4.26307   -3.35124
$end

$rem
JOBTYPE  OPT
GEN_SCFMAN  TRUE
METHOD  B3LYP
DFT_D  D3_BJ
BASIS  DEF2-SVPD
UNRESTRICTED  FALSE
MAX_SCF_CYCLES  2000
THRESH  14
SCF_CONVERGENCE  9
MEM_TOTAL  8000
MEM_STATIC  2000
SCF_GUESS  FRAGMO
SYMMETRY  FALSE
SYM_IGNORE  FALSE
SCF_ALGORITHM  DIIS
BASIS_LIN_DEP_THRESH  6
IDERIV  1
XC_GRID  000075000302
NL_GRID  1
FD_MAT_VEC_PROD  FALSE
GEOM_OPT_TOL_GRADIENT  50
GEOM_OPT_TOL_DISPLACEMENT  50
GEOM_OPT_TOL_ENERGY  10
GEOM_OPT_DRIVER  OPTIMIZE
GEOM_OPT_MAX_CYCLES  200
$end

--------------------------------------------------------------

   13    -800.2870593213      2.63e-10  Convergence criterion met
 Total energy =  -800.28705932
   12    -800.2887046394      4.04e-10  Convergence criterion met
 Total energy =  -800.28870464
   11    -800.2888065466      9.66e-10  Convergence criterion met
 Total energy =  -800.28880655
   12    -800.2888038969      2.21e-10  Convergence criterion met
 Total energy =  -800.28880390
   11    -800.2888277056      9.60e-10  Convergence criterion met
 Total energy =  -800.28882771
   11    -800.2888465229      3.12e-10  Convergence criterion met
 Total energy =  -800.28884652
   10    -800.2888490926      6.75e-10  Convergence criterion met
 Total energy =  -800.28884909
   11    -800.2888522590      1.72e-10  Convergence criterion met
 **  OPTIMIZATION CONVERGED  **
 Total job time:  301.05s(wall), 4627.79s(cpu)
        *  Thank you very much for using Q-Chem.  Have a nice day.  *
 Q-Chem 6.2, Q-Chem, Inc., Pleasanton, CA (2024)
 Q-Chem 6.2.0 for Intel X86 EM64T Linux

User input:
--------------------------------------------------------------

$molecule
read
$end

$rem
JOBTYPE  FREQ
GEN_SCFMAN  TRUE
METHOD  B3LYP
DFT_D  D3_BJ
BASIS  DEF2-SVPD
UNRESTRICTED  FALSE
MAX_SCF_CYCLES  2000
THRESH  14
SCF_CONVERGENCE  9
MEM_TOTAL  8000
MEM_STATIC  2000
SCF_GUESS  FRAGMO
SYMMETRY  FALSE
SYM_IGNORE  FALSE
SCF_ALGORITHM  DIIS
BASIS_LIN_DEP_THRESH  6
IDERIV  1
XC_GRID  000075000302
NL_GRID  1
FD_MAT_VEC_PROD  FALSE
GEOM_OPT_TOL_GRADIENT  50
GEOM_OPT_TOL_DISPLACEMENT  50
GEOM_OPT_TOL_ENERGY  10
GEOM_OPT_DRIVER  OPTIMIZE
GEOM_OPT_MAX_CYCLES  200
$end

--------------------------------------------------------------

 Frequency:        13.23                  30.07                  56.95
 Force Cnst:      0.0004                 0.0026                 0.0118
 Red. Mass:       3.5084                 4.9470                 6.1676
 IR Intens:        0.648                  1.756                  1.902
 Frequency:        58.26                  80.76                 117.96
 Force Cnst:      0.0170                 0.0153                 0.0083
 Red. Mass:       8.4913                 3.9786                 1.0150
 IR Intens:        1.640                  3.013                  0.001
 Frequency:       151.59                 157.51                 197.66
 Force Cnst:      0.0142                 0.0153                 0.0516
 Red. Mass:       1.0477                 1.0486                 2.2426
 IR Intens:        0.007                  0.002                  0.833
 Frequency:       199.19                 236.83                 319.97
 Force Cnst:      0.0523                 0.0798                 0.7484
 Red. Mass:       2.2381                 2.4134                12.4074
 IR Intens:        0.752                  1.525                  2.214
 Frequency:       320.50                 463.80                 603.06
 Force Cnst:      0.7532                 1.8090                 0.2284
 Red. Mass:      12.4453                14.2735                 1.0657
 IR Intens:        1.965                 20.226                  8.006
 Frequency:       612.46                 632.62                 667.61
 Force Cnst:      0.6640                 0.2721                 0.3068
 Red. Mass:       3.0043                 1.1540                 1.1683
 IR Intens:        7.794                 21.555                  0.004
 Frequency:       709.54                 713.02                 836.59
 Force Cnst:      0.8592                 0.8666                 0.5693
 Red. Mass:       2.8967                 2.8931                 1.3805
 IR Intens:        8.159                  6.807                 11.661
 Frequency:       840.02                 855.31                 898.48
 Force Cnst:      0.6065                 0.6765                 0.6456
 Red. Mass:       1.4587                 1.5697                 1.3574
 IR Intens:       21.463                129.157                132.671
 Frequency:       928.15                1259.85                1261.71
 Force Cnst:      0.6263                 1.1827                 1.1870
 Red. Mass:       1.2340                 1.2647                 1.2656
 IR Intens:      202.256                 29.026                 35.309
 Frequency:      1271.03                1417.86                1422.00
 Force Cnst:      1.1758                 1.2468                 1.2510
 Red. Mass:       1.2353                 1.0527                 1.0500
 IR Intens:        8.270                  0.088                  0.321
 Frequency:      1422.43                1429.64                1430.32
 Force Cnst:      1.2519                 1.2603                 1.2613
 Red. Mass:       1.0502                 1.0466                 1.0464
 IR Intens:        0.266                  2.052                  3.707
 Frequency:      1438.94                2108.60                2295.78
 Force Cnst:      1.2743                 2.7215                38.6878
 Red. Mass:       1.0446                 1.0389                12.4584
 IR Intens:        8.102                601.547                 10.314
 Frequency:      3022.64                3022.65                3022.97
 Force Cnst:      5.5753                 5.5758                 5.5760
 Red. Mass:       1.0357                 1.0358                 1.0356
 IR Intens:        3.616                  3.533                  2.772
 Frequency:      3103.48                3103.81                3105.26
 Force Cnst:      6.2484                 6.2498                 6.2529
 Red. Mass:       1.1011                 1.1011                 1.1006
 IR Intens:        0.432                  3.918                 19.866
 Frequency:      3109.43                3109.74                3111.79
 Force Cnst:      6.2740                 6.2748                 6.2850
 Red. Mass:       1.1014                 1.1013                 1.1016
 IR Intens:        3.532                 11.515                  8.104
 Q-Chem 6.2, Q-Chem, Inc., Pleasanton, CA (2024)
 Q-Chem 6.2.0 for Intel X86 EM64T Linux

User input:
--------------------------------------------------------------

$molecule
read
$end

$rem
JOBTYPE  OPT
GEN_SCFMAN  TRUE
POL_GEOM  TRUE
METHOD  B3LYP
DFT_D  D3_BJ
BASIS  DEF2-SVPD
UNRESTRICTED  FALSE
MAX_SCF_CYCLES  2000
THRESH  14
SCF_CONVERGENCE  9
MEM_TOTAL  8000
MEM_STATIC  2000
SCF_GUESS  FRAGMO
SYMMETRY  FALSE
SYM_IGNORE  FALSE
SCF_ALGORITHM  DIIS
BASIS_LIN_DEP_THRESH  6
IDERIV  1
SCFMI_MODE  0
XC_GRID  000075000302
NL_GRID  1
FD_MAT_VEC_PROD  FALSE
GEOM_OPT_TOL_GRADIENT  50
GEOM_OPT_TOL_DISPLACEMENT  50
GEOM_OPT_TOL_ENERGY  10
GEOM_OPT_DRIVER  OPTIMIZE
GEOM_OPT_MAX_CYCLES  200
$end

--------------------------------------------------------------

 Q-Chem 6.2, Q-Chem, Inc., Pleasanton, CA (2024)
 Q-Chem 6.2.0 for Intel X86 EM64T Linux

                    Orbital Energies (a.u.)
 --------------------------------------------------------------

 Alpha MOs
 -- Occupied --
-66.1219 -14.3504 -10.2623 -10.1805 -10.1803 -10.1803  -6.9072  -5.2847
 -4.9372  -4.9177  -4.9177  -3.6473  -3.6464  -3.6463  -1.9848  -1.9782
 -1.9781  -1.9618  -1.9618  -0.9148  -0.7752  -0.7226  -0.6862  -0.6862
 -0.5114  -0.4909  -0.4332  -0.4231  -0.4225  -0.4059  -0.4058  -0.3965
 -0.3857  -0.3857  -0.3797  -0.3294  -0.3217  -0.3213  -0.3038  -0.3036

 Frequency:        22.88                  28.83                  37.16
 Force Cnst:      0.0010                 0.0036                 0.0053
 Red. Mass:       3.3398                 7.2812                 6.4564
 IR Intens:        0.455                  2.240                  2.296
 Frequency:        44.18                  67.54                 129.63
 Force Cnst:      0.0070                 0.0103                 0.0101
 Red. Mass:       6.1157                 3.8453                 1.0156
 IR Intens:        0.953                  0.476                  0.002
 Frequency:       157.51                 162.22                 199.55
 Force Cnst:      0.0151                 0.0163                 0.0527
 Red. Mass:       1.0346                 1.0506                 2.2483
 IR Intens:        0.005                  0.003                  0.841
 Frequency:       199.83                 234.35                 319.56
 Force Cnst:      0.0534                 0.0761                 0.7552
 Red. Mass:       2.2697                 2.3509                12.5521
 IR Intens:        0.739                  1.600                  1.459
 Frequency:       319.68                 484.85                 605.98
 Force Cnst:      0.7556                 2.1348                 0.2310
 Red. Mass:      12.5494                15.4129                 1.0676
 IR Intens:        1.760                  1.968                  8.363
 Frequency:       613.43                 622.80                 665.68
 Force Cnst:      0.7094                 0.2530                 0.3051
 Red. Mass:       3.2000                 1.1071                 1.1685
 IR Intens:        2.578                 11.826                  0.015
 Frequency:       706.76                 709.36                 837.65
 Force Cnst:      0.8691                 0.8654                 0.5862
 Red. Mass:       2.9532                 2.9189                 1.4180
 IR Intens:        9.263                  8.897                 17.491
 Frequency:       838.74                 856.95                 909.18
 Force Cnst:      0.6041                 0.6782                 0.6357
 Red. Mass:       1.4575                 1.5674                 1.3054
 IR Intens:       22.611                 82.903                134.937
 Frequency:       928.85                1260.38                1261.87
 Force Cnst:      0.6352                 1.1865                 1.1863
 Red. Mass:       1.2497                 1.2677                 1.2645
 IR Intens:      188.394                 30.798                 34.646
 Frequency:      1269.99                1420.09                1422.28
 Force Cnst:      1.1737                 1.2510                 1.2517
 Red. Mass:       1.2351                 1.0528                 1.0503
 IR Intens:        8.967                  0.137                  0.301
 Frequency:      1422.33                1431.93                1432.04
 Force Cnst:      1.2518                 1.2645                 1.2648
 Red. Mass:       1.0502                 1.0467                 1.0468
 IR Intens:        0.204                  2.308                  1.774
 Frequency:      1439.25                2156.27                2298.05
 Force Cnst:      1.2747                 2.8450                39.7149
 Red. Mass:       1.0444                 1.0386                12.7640
 IR Intens:        9.180                261.886                 14.338
 Frequency:      3022.27                3022.30                3022.52
 Force Cnst:      5.5746                 5.5744                 5.5748
 Red. Mass:       1.0359                 1.0358                 1.0357
 IR Intens:        4.552                  5.208                  2.131
 Frequency:      3102.39                3102.82                3104.24
 Force Cnst:      6.2439                 6.2458                 6.2484
 Red. Mass:       1.1011                 1.1011                 1.1006
 IR Intens:        0.529                  3.760                 23.961
 Frequency:      3107.83                3108.19                3108.60
 Force Cnst:      6.2671                 6.2678                 6.2703
 Red. Mass:       1.1013                 1.1012                 1.1013
 IR Intens:        1.959                 15.851                 11.761
 Q-Chem 6.2, Q-Chem, Inc., Pleasanton, CA (2024)
 Q-Chem 6.2.0 for Intel X86 EM64T Linux
        *  Thank you very much for using Q-Chem.  Have a nice day.  *
 Q-Chem 6.2, Q-Chem, Inc., Pleasanton, CA (2024)
 Q-Chem 6.2.0 for Intel X86 EM64T Linux
 Total energy in the final basis set =     -800.2840730024
 Total energy in the final basis set =     -800.2840729559
 Total energy in the final basis set =     -800.2840729551
 Total energy in the final basis set =     -800.2840708242
 Total energy in the final basis set =     -800.2840708553
 Total energy in the final basis set =     -800.2840729562
 Total energy in the final basis set =     -800.2840729623
 Total energy in the final basis set =     -800.2840725843
 Total energy in the final basis set =     -800.2840725934
 Total energy in the final basis set =     -800.2840711344
 Total energy in the final basis set =     -800.2840711246
 Total energy in the final basis set =     -800.2840729948
 Total energy in the final basis set =     -800.2840729969
 Total energy in the final basis set =     -800.2840726542
 Total energy in the final basis set =     -800.2840726839

          Ground-State Mulliken Net Atomic Charges

     Atom                 Charge (a.u.)
  ----------------------------------------
      1 H                     0.248864
      2 Si                   -0.236622
      3 C                     0.390147
      4 H                    -0.139386
      5 H                    -0.137996
      6 H                    -0.117224
      7 C                     0.388962
      8 H                    -0.136295
      9 H                    -0.119706
     10 H                    -0.136300
     11 C                     0.390131
     12 H                    -0.117221
     13 H                    -0.139341
     14 H                    -0.138014
     15 I                     0.258716
     16 C                    -0.223772
     17 N                    -0.034943
  ----------------------------------------
  Sum of atomic charges =     0.000000

                    Cartesian Multipole Moments
 -----------------------------------------------------------------
    Charge (ESU x 10^10)
                 0.0000
    Dipole Moment (Debye)
         X      -3.9649      Y      -0.0059      Z       1.0466
       Tot       4.1007
    Quadrupole Moments (Debye-Ang)
        XX     -91.7346     XY      -0.0273     YY     -73.7298
        XZ       5.6672     YZ       0.0045     ZZ     -74.7570

             Standard Nuclear Orientation (Angstroms)
    I     Atom           X                Y                Z
 ----------------------------------------------------------------
    1      H      -1.7195822612    -0.0034840797     1.1621909618
    2      Si     -2.7191403083     0.0001084228     0.0420952655
    3      C      -2.4420762870    -1.5456539364    -1.0012265138
    4      H      -1.4339839169    -1.5600973780    -1.4414049305
    5      H      -2.5608835679    -2.4604376280    -0.4014779699
    6      H      -3.1669760154    -1.5912183946    -1.8285261746
    7      C      -4.4450953368    -0.0030484499     0.7980457015
    8      H      -4.6064434205    -0.8945639311     1.4222784148
    9      H      -5.2150154038    -0.0004583387     0.0110997532
   10      H      -4.6069242946     0.8839164151     1.4286040429
   11      C      -2.4429643107     1.5532354069    -0.9904562150
   12      H      -3.1676535816     1.6039654080    -1.8176387745
   13      H      -1.4347454773     1.5714517277    -1.4302088689
   14      H      -2.5626155763     2.4637691536    -0.3844420186
   15      I       1.4071966194    -0.0016183976     0.3494602662
   16      C       3.2649929428     0.0021945955    -0.4255434981
   17      N       4.3360321365     0.0044355003    -0.8737313010
 ----------------------------------------------------------------

 Frequency:        16.57                  22.08                  29.34
 Force Cnst:      0.0017                 0.0016                 0.0017
 Red. Mass:      10.6948                 5.6148                 3.3630
 IR Intens:        3.162                  2.138                  1.075
 Frequency:        42.35                  59.20                 128.45
 Force Cnst:      0.0060                 0.0071                 0.0099
 Red. Mass:       5.7206                 3.4193                 1.0170
 IR Intens:        0.273                  0.100                  0.001
 Frequency:       154.38                 161.87                 199.56
 Force Cnst:      0.0145                 0.0162                 0.0527
 Red. Mass:       1.0361                 1.0515                 2.2452
 IR Intens:        0.003                  0.000                  0.969
 Frequency:       201.06                 230.70                 315.14
 Force Cnst:      0.0540                 0.0727                 0.7342
 Red. Mass:       2.2668                 2.3191                12.5467
 IR Intens:        1.020                  1.638                  1.072
 Frequency:       315.67                 491.14                 602.83
 Force Cnst:      0.7373                 2.1963                 0.2288
 Red. Mass:      12.5584                15.4535                 1.0686
 IR Intens:        1.127                  0.567                  8.593
 Frequency:       613.04                 619.55                 665.43
 Force Cnst:      0.6264                 0.2612                 0.3048
 Red. Mass:       2.8292                 1.1551                 1.1683
 IR Intens:        2.158                  6.480                  0.015
 Frequency:       706.26                 707.84                 835.95
 Force Cnst:      0.8694                 0.8651                 0.5813
 Red. Mass:       2.9582                 2.9307                 1.4120
 IR Intens:       11.650                 11.530                 17.434
 Frequency:       837.50                 856.01                 910.03
 Force Cnst:      0.5990                 0.6795                 0.6393
 Red. Mass:       1.4494                 1.5740                 1.3102
 IR Intens:       23.988                 59.752                157.952
 Frequency:       926.91                1259.56                1259.59
 Force Cnst:      0.6382                 1.1828                 1.1834
 Red. Mass:       1.2606                 1.2654                 1.2660
 IR Intens:      154.669                 33.169                 33.241
 Frequency:      1268.15                1420.16                1422.25
 Force Cnst:      1.1703                 1.2511                 1.2519
 Red. Mass:       1.2351                 1.0529                 1.0504
 IR Intens:        6.194                  0.013                  0.012
 Frequency:      1422.55                1431.90                1432.20
 Force Cnst:      1.2523                 1.2647                 1.2648
 Red. Mass:       1.0503                 1.0469                 1.0466
 IR Intens:        0.068                  2.623                  2.594
 Frequency:      1438.89                2158.64                2299.93
 Force Cnst:      1.2743                 2.8527                39.8000
 Red. Mass:       1.0446                 1.0391                12.7704
 IR Intens:        8.861                160.337                 11.769
 Frequency:      3021.78                3022.49                3022.71
 Force Cnst:      5.5722                 5.5754                 5.5760
 Red. Mass:       1.0357                 1.0359                 1.0358
 IR Intens:        6.196                  7.188                  3.623
 Frequency:      3102.18                3102.34                3103.88
 Force Cnst:      6.2437                 6.2435                 6.2465
 Red. Mass:       1.1012                 1.1010                 1.1005
 IR Intens:        0.728                  1.596                 30.165
 Frequency:      3107.97                3108.40                3108.89
 Force Cnst:      6.2677                 6.2690                 6.2697
 Red. Mass:       1.1013                 1.1012                 1.1010
 IR Intens:        4.629                 11.398                 16.974

 STANDARD THERMODYNAMIC QUANTITIES AT   298.15 K  AND     1.00 ATM

   This Molecule has  0 Imaginary Frequencies
   Zero point vibrational energy:       78.860 kcal/mol

   Atom    1 Element H  Has Mass    1.00783
   Atom    2 Element Si Has Mass   27.97693
   Atom    3 Element C  Has Mass   12.00000
   Atom    4 Element H  Has Mass    1.00783
   Atom    5 Element H  Has Mass    1.00783
   Atom    6 Element H  Has Mass    1.00783
   Atom    7 Element C  Has Mass   12.00000
   Atom    8 Element H  Has Mass    1.00783
   Atom    9 Element H  Has Mass    1.00783
   Atom   10 Element H  Has Mass    1.00783
   Atom   11 Element C  Has Mass   12.00000
   Atom   12 Element H  Has Mass    1.00783
   Atom   13 Element H  Has Mass    1.00783
   Atom   14 Element H  Has Mass    1.00783
   Atom   15 Element I  Has Mass  126.90440
   Atom   16 Element C  Has Mass   12.00000
   Atom   17 Element N  Has Mass   14.00307
   Molecular Mass:   226.962700 amu
   Principal axes and moments of inertia in amu*Bohr^2:
                             1           2           3
    Eigenvalues --      562.39146  5001.85943  5021.68856
          X              -0.99999     0.00004    -0.00402
          Y               0.00002     0.99998     0.00573
          Z              -0.00402    -0.00573     0.99998
   Rotational Symmetry Number is   1
   The Molecule is an Asymmetric Top
   Translational Enthalpy:        0.889 kcal/mol
   Rotational Enthalpy:           0.889 kcal/mol
   Vibrational Enthalpy:         85.225 kcal/mol
   gas constant (RT):             0.592 kcal/mol
   Translational Entropy:        42.161  cal/mol.K
   Rotational Entropy:           31.025  cal/mol.K
   Vibrational Entropy:          49.759  cal/mol.K

   Total Enthalpy:               87.595 kcal/mol
   Total Entropy:               122.945  cal/mol.K

 Total job time:  3688.41s(wall), 12464.35s(cpu)
        *  Thank you very much for using Q-Chem.  Have a nice day.  *
