 Q-Chem 6.2, Q-Chem, Inc., Pleasanton, CA (2024)
 Q-Chem 6.2.0 for Intel X86 EM64T Linux

User input:
--------------------------------------------------------------
$molecule
0 1
O    1.37714    0.09749    0.00000
H    1.75572    -0.34454   0.76773
H    1.75572    -0.34454   -0.76773
$end

$rem
JOBTYPE  OPT
GEN_SCFMAN  TRUE
METHOD  B3LYP
DFT_D  D3_BJ
BASIS  DEF2-SVPD
UNRESTRICTED  FALSE
MAX_SCF_CYCLES  2000
THRESH  14
SCF_CONVERGENCE  9
MEM_TOTAL  8000
MEM_STATIC  2000
SYMMETRY  FALSE
SYM_IGNORE  FALSE
SCF_ALGORITHM  DIIS
BASIS_LIN_DEP_THRESH  6
IDERIV  1
XC_GRID  000075000302
NL_GRID  1
FD_MAT_VEC_PROD  FALSE
GEOM_OPT_TOL_GRADIENT  50
GEOM_OPT_TOL_DISPLACEMENT  50
GEOM_OPT_TOL_ENERGY  10
GEOM_OPT_DRIVER  OPTIMIZE
GEOM_OPT_MAX_CYCLES  200
$end

--------------------------------------------------------------

   10     -76.3809730228      2.38e-10  Convergence criterion met
 Total energy =   -76.38097302
    7     -76.3809755114      8.95e-10  Convergence criterion met
 Total energy =   -76.38097551
    7     -76.3809755950      1.91e-10  Convergence criterion met
 Total energy =   -76.38097560
 Final energy is   -76.3809755950046
 **  OPTIMIZATION CONVERGED  **
 Total job time:  3.89s(wall), 30.66s(cpu)
        *  Thank you very much for using Q-Chem.  Have a nice day.  *
 Q-Chem 6.2, Q-Chem, Inc., Pleasanton, CA (2024)
 Q-Chem 6.2.0 for Intel X86 EM64T Linux

User input:
--------------------------------------------------------------

$molecule
read
$end

$rem
JOBTYPE  FREQ
GEN_SCFMAN  TRUE
METHOD  B3LYP
DFT_D  D3_BJ
BASIS  DEF2-SVPD
UNRESTRICTED  FALSE
MAX_SCF_CYCLES  2000
THRESH  14
SCF_CONVERGENCE  9
MEM_TOTAL  8000
MEM_STATIC  2000
SYMMETRY  FALSE
SYM_IGNORE  FALSE
SCF_ALGORITHM  DIIS
BASIS_LIN_DEP_THRESH  6
IDERIV  1
XC_GRID  000075000302
NL_GRID  1
FD_MAT_VEC_PROD  FALSE
GEOM_OPT_TOL_GRADIENT  50
GEOM_OPT_TOL_DISPLACEMENT  50
GEOM_OPT_TOL_ENERGY  10
GEOM_OPT_DRIVER  OPTIMIZE
GEOM_OPT_MAX_CYCLES  200
$end
--------------------------------------------------------------

   10     -76.3809755950      2.32e-10  Convergence criterion met
 Total energy =   -76.38097559
    7     -76.3809743650      5.90e-10  Convergence criterion met
 Total energy =   -76.38097437
    8     -76.3809755947      4.37e-10  Convergence criterion met
 Total energy =   -76.38097559
    7     -76.3809747943      7.53e-10  Convergence criterion met
 Total energy =   -76.38097479
    8     -76.3809748037      7.60e-11  Convergence criterion met
 Total energy =   -76.38097480
    8     -76.3809749343      1.95e-10  Convergence criterion met
 Total energy =   -76.38097493
    8     -76.3809749241      2.84e-10  Convergence criterion met
 Total energy =   -76.38097492
    8     -76.3809755948      2.09e-10  Convergence criterion met
 Total energy =   -76.38097559
    8     -76.3809752197      1.93e-10  Convergence criterion met
 Total energy =   -76.38097522
    8     -76.3809752150      3.46e-10  Convergence criterion met
 Total energy =   -76.38097522

                    Orbital Energies (a.u.)
 --------------------------------------------------------------

 Alpha MOs
 -- Occupied --
-19.1548  -1.0076  -0.5426  -0.3977  -0.3255

          Ground-State Mulliken Net Atomic Charges

     Atom                 Charge (a.u.)
  ----------------------------------------
      1 O                    -0.237513
      2 H                     0.119022
      3 H                     0.118490
  ----------------------------------------
  Sum of atomic charges =     0.000000

                    Cartesian Multipole Moments
 -----------------------------------------------------------------
    Charge (ESU x 10^10)
                -0.0000
    Dipole Moment (Debye)
         X       0.0003      Y      -0.0000      Z      -1.8816
       Tot       1.8816
    Quadrupole Moments (Debye-Ang)
        XX      -4.5145     XY       0.0000     YY      -7.8346
        XZ       0.0017     YZ       0.0000     ZZ      -6.5435

             Standard Nuclear Orientation (Angstroms)
    I     Atom           X                Y                Z
 ----------------------------------------------------------------
    1      O       0.0000000000     0.0000000000     0.1168791335
    2      H      -0.7668144252    -0.0000000000    -0.4675165341
    3      H       0.7668144252     0.0000000000    -0.4675165341
 ----------------------------------------------------------------

 Frequency:      1585.62                3819.61                3925.88
 Force Cnst:      1.6045                 8.9803                 9.8321
 Red. Mass:       1.0832                 1.0447                 1.0827
 IR Intens:       78.025                  7.109                 75.510

 STANDARD THERMODYNAMIC QUANTITIES AT   298.15 K  AND     1.00 ATM

   This Molecule has  0 Imaginary Frequencies
   Zero point vibrational energy:       13.339 kcal/mol

   Atom    1 Element O  Has Mass   15.99491
   Atom    2 Element H  Has Mass    1.00783
   Atom    3 Element H  Has Mass    1.00783
   Molecular Mass:    18.010570 amu
   Principal axes and moments of inertia in amu*Bohr^2:
                             1           2           3
    Eigenvalues --        2.18315     4.23249     6.41564
          X              -1.00000     0.00000    -0.00000
          Y              -0.00000     0.00000     1.00000
          Z              -0.00000     1.00000     0.00000
   Rotational Symmetry Number is   2
   The Molecule is an Asymmetric Top
   Translational Enthalpy:        0.889 kcal/mol
   Rotational Enthalpy:           0.889 kcal/mol
   Vibrational Enthalpy:         13.342 kcal/mol
   gas constant (RT):             0.592 kcal/mol
   Translational Entropy:        34.608  cal/mol.K
   Rotational Entropy:           10.482  cal/mol.K
   Vibrational Entropy:           0.008  cal/mol.K

   Total Enthalpy:               15.712 kcal/mol
   Total Entropy:                45.098  cal/mol.K

 Total job time:  12.53s(wall), 99.90s(cpu)
        *  Thank you very much for using Q-Chem.  Have a nice day.  *
