 Q-Chem 6.2, Q-Chem, Inc., Pleasanton, CA (2024)
 Q-Chem 6.2.0 for Intel X86 EM64T Linux

User input:
--------------------------------------------------------------
$molecule
0 1
--
0 1
O    -1.51598   -0.11939   0.00000
H    -1.92502   0.75089    0.00000
H    -0.55962   0.04345    0.00000
--
0 1
O    1.37714    0.09749    0.00000
H    1.75572    -0.34454   0.76773
H    1.75572    -0.34454   -0.76773
$end

$rem
JOBTYPE  OPT
GEN_SCFMAN  TRUE
METHOD  B3LYP
DFT_D  D3_BJ
BASIS  DEF2-SVPD
UNRESTRICTED  FALSE
MAX_SCF_CYCLES  2000
THRESH  14
SCF_CONVERGENCE  9
MEM_TOTAL  8000
MEM_STATIC  2000
SCF_GUESS  FRAGMO
SYMMETRY  FALSE
SYM_IGNORE  FALSE
SCF_ALGORITHM  DIIS
BASIS_LIN_DEP_THRESH  6
IDERIV  1
XC_GRID  000075000302
NL_GRID  1
FD_MAT_VEC_PROD  FALSE
GEOM_OPT_TOL_GRADIENT  50
GEOM_OPT_TOL_DISPLACEMENT  50
GEOM_OPT_TOL_ENERGY  10
GEOM_OPT_DRIVER  OPTIMIZE
GEOM_OPT_MAX_CYCLES  200
$end

--------------------------------------------------------------

   11    -152.7710553016      1.91e-10  Convergence criterion met
 Total energy =  -152.77105530
    9    -152.7710682038      1.48e-10  Convergence criterion met
 Total energy =  -152.77106820
    8    -152.7710711549      9.10e-10  Convergence criterion met
 Total energy =  -152.77107115
    9    -152.7710743780      2.01e-10  Convergence criterion met
 Total energy =  -152.77107438
    8    -152.7710745459      2.53e-10  Convergence criterion met
 Total energy =  -152.77107455
    8    -152.7710746555      3.01e-10  Convergence criterion met
 Total energy =  -152.77107466
    8    -152.7710748083      4.13e-10  Convergence criterion met
 Total energy =  -152.77107481
    9    -152.7710751859      5.71e-11  Convergence criterion met
 **  OPTIMIZATION CONVERGED  **
 Total job time:  32.26s(wall), 481.73s(cpu)
        *  Thank you very much for using Q-Chem.  Have a nice day.  *
 Q-Chem 6.2, Q-Chem, Inc., Pleasanton, CA (2024)
 Q-Chem 6.2.0 for Intel X86 EM64T Linux

User input:
--------------------------------------------------------------

$molecule
read
$end

$rem
JOBTYPE  FREQ
GEN_SCFMAN  TRUE
METHOD  B3LYP
DFT_D  D3_BJ
BASIS  DEF2-SVPD
UNRESTRICTED  FALSE
MAX_SCF_CYCLES  2000
THRESH  14
SCF_CONVERGENCE  9
MEM_TOTAL  8000
MEM_STATIC  2000
SCF_GUESS  FRAGMO
SYMMETRY  FALSE
SYM_IGNORE  FALSE
SCF_ALGORITHM  DIIS
BASIS_LIN_DEP_THRESH  6
IDERIV  1
XC_GRID  000075000302
NL_GRID  1
FD_MAT_VEC_PROD  FALSE
GEOM_OPT_TOL_GRADIENT  50
GEOM_OPT_TOL_DISPLACEMENT  50
GEOM_OPT_TOL_ENERGY  10
GEOM_OPT_DRIVER  OPTIMIZE
GEOM_OPT_MAX_CYCLES  200
$end

--------------------------------------------------------------

 Frequency:       128.44                 145.89                 158.55
 Force Cnst:      0.0103                 0.0143                 0.0155
 Red. Mass:       1.0609                 1.1366                 1.0448
 IR Intens:      160.324                233.281                  6.271
 Frequency:       188.72                 347.38                 633.21
 Force Cnst:      0.1190                 0.0770                 0.2463
 Red. Mass:       5.6705                 1.0827                 1.0427
 IR Intens:       47.906                 60.956                102.820
 Frequency:      1582.33                1606.36                3689.17
 Force Cnst:      1.5996                 1.6370                 8.4655
 Red. Mass:       1.0843                 1.0768                 1.0557
 IR Intens:       92.052                 43.020                392.402
 Frequency:      3813.87                3895.30                3917.55
 Force Cnst:      8.9522                 9.5886                 9.7921
 Red. Mass:       1.0446                 1.0726                 1.0829
 IR Intens:       13.841                 96.016                 98.444
 Q-Chem 6.2, Q-Chem, Inc., Pleasanton, CA (2024)
 Q-Chem 6.2.0 for Intel X86 EM64T Linux

User input:
--------------------------------------------------------------

$molecule
read
$end

$rem
JOBTYPE  OPT
GEN_SCFMAN  TRUE
POL_GEOM  TRUE
METHOD  B3LYP
DFT_D  D3_BJ
BASIS  DEF2-SVPD
UNRESTRICTED  FALSE
MAX_SCF_CYCLES  2000
THRESH  14
SCF_CONVERGENCE  9
MEM_TOTAL  8000
MEM_STATIC  2000
SCF_GUESS  FRAGMO
SYMMETRY  FALSE
SYM_IGNORE  FALSE
SCF_ALGORITHM  DIIS
BASIS_LIN_DEP_THRESH  6
IDERIV  1
SCFMI_MODE  0
XC_GRID  000075000302
NL_GRID  1
FD_MAT_VEC_PROD  FALSE
GEOM_OPT_TOL_GRADIENT  50
GEOM_OPT_TOL_DISPLACEMENT  50
GEOM_OPT_TOL_ENERGY  10
GEOM_OPT_DRIVER  OPTIMIZE
GEOM_OPT_MAX_CYCLES  200
$end

--------------------------------------------------------------

 Q-Chem 6.2, Q-Chem, Inc., Pleasanton, CA (2024)
 Q-Chem 6.2.0 for Intel X86 EM64T Linux

                    Orbital Energies (a.u.)
 --------------------------------------------------------------

 Alpha MOs
 -- Occupied --
-19.1739 -19.1305  -1.0274  -0.9840  -0.5620  -0.5209  -0.4214  -0.3749
 -0.3454  -0.3040

 Frequency:       109.86                 112.54                 122.99
 Force Cnst:      0.0073                 0.0080                 0.0124
 Red. Mass:       1.0329                 1.0693                 1.3961
 IR Intens:       74.094                 81.424                152.524
 Frequency:       147.67                 276.24                 487.53
 Force Cnst:      0.0360                 0.0494                 0.1464
 Red. Mass:       2.8030                 1.0987                 1.0451
 IR Intens:      102.833                 80.758                126.941
 Frequency:      1586.95                1604.99                3813.59
 Force Cnst:      1.6080                 1.6391                 8.9607
 Red. Mass:       1.0837                 1.0800                 1.0457
 IR Intens:       87.479                 56.374                 79.579
 Frequency:      3819.14                3917.96                3920.53
 Force Cnst:      8.9771                 9.7808                 9.8057
 Red. Mass:       1.0446                 1.0815                 1.0828
 IR Intens:       15.149                146.789                 92.491
 Q-Chem 6.2, Q-Chem, Inc., Pleasanton, CA (2024)
 Q-Chem 6.2.0 for Intel X86 EM64T Linux
        *  Thank you very much for using Q-Chem.  Have a nice day.  *
 Q-Chem 6.2, Q-Chem, Inc., Pleasanton, CA (2024)
 Q-Chem 6.2.0 for Intel X86 EM64T Linux
 Total energy in the final basis set =     -152.7669153345
 Total energy in the final basis set =     -152.7669162014
 Total energy in the final basis set =     -152.7669161778
 Total energy in the final basis set =     -152.7669162796
 Total energy in the final basis set =     -152.7669159486
 Total energy in the final basis set =     -152.7669158479
 Total energy in the final basis set =     -152.7669158417
 Total energy in the final basis set =     -152.7669158980
 Total energy in the final basis set =     -152.7669150570
 Total energy in the final basis set =     -152.7669160822
 Total energy in the final basis set =     -152.7669161354
 Total energy in the final basis set =     -152.7669160990
 Total energy in the final basis set =     -152.7669160841
 Total energy in the final basis set =     -152.7669156134
 Total energy in the final basis set =     -152.7669156355

          Ground-State Mulliken Net Atomic Charges

     Atom                 Charge (a.u.)
  ----------------------------------------
      1 O                    -0.242144
      2 H                     0.117650
      3 H                     0.124494
      4 O                    -0.238247
      5 H                     0.119472
      6 H                     0.118774
  ----------------------------------------
  Sum of atomic charges =     0.000000

                    Cartesian Multipole Moments
 -----------------------------------------------------------------
    Charge (ESU x 10^10)
                 0.0000
    Dipole Moment (Debye)
         X       2.2066      Y      -0.2884      Z      -0.0013
       Tot       2.2254
    Quadrupole Moments (Debye-Ang)
        XX     -11.1344     XY       6.3408     YY     -13.3155
        XZ      -0.0025     YZ      -0.0004     ZZ     -12.3189

             Standard Nuclear Orientation (Angstroms)
    I     Atom           X                Y                Z
 ----------------------------------------------------------------
    1      O      -1.6655059666     0.1190974875     0.0000000000
    2      H      -2.0549246491    -0.7621026861    -0.0000000000
    3      H      -0.7110959369    -0.0240551248    -0.0000000000
    4      O       1.5288177276    -0.1013955381    -0.0000000000
    5      H       1.9297632492     0.3222711081    -0.7679529245
    6      H       1.9297632492     0.3222711081     0.7679529245
 ----------------------------------------------------------------

 Frequency:        90.76                 101.43                 102.55
 Force Cnst:      0.0051                 0.0081                 0.0066
 Red. Mass:       1.0415                 1.3348                 1.0579
 IR Intens:        5.618                156.992                150.675
 Frequency:       133.62                 247.74                 434.73
 Force Cnst:      0.0315                 0.0401                 0.1165
 Red. Mass:       2.9907                 1.1092                 1.0461
 IR Intens:       66.386                104.320                171.001
 Frequency:      1587.25                1602.20                3818.38
 Force Cnst:      1.6083                 1.6347                 8.9755
 Red. Mass:       1.0835                 1.0808                 1.0448
 IR Intens:       85.334                 75.433                  7.307
 Frequency:      3828.77                3922.14                3927.92
 Force Cnst:      9.0224                 9.8136                 9.8372
 Red. Mass:       1.0446                 1.0828                 1.0822
 IR Intens:        9.780                 75.720                 80.565

 STANDARD THERMODYNAMIC QUANTITIES AT   298.15 K  AND     1.00 ATM

   This Molecule has  0 Imaginary Frequencies
   Zero point vibrational energy:       28.302 kcal/mol

   Atom    1 Element O  Has Mass   15.99491
   Atom    2 Element H  Has Mass    1.00783
   Atom    3 Element H  Has Mass    1.00783
   Atom    4 Element O  Has Mass   15.99491
   Atom    5 Element H  Has Mass    1.00783
   Atom    6 Element H  Has Mass    1.00783
   Molecular Mass:    36.021140 amu
   Principal axes and moments of inertia in amu*Bohr^2:
                             1           2           3
    Eigenvalues --        8.17937   339.88746   340.19821
          X               0.99955    -0.00000    -0.03012
          Y              -0.03012    -0.00000    -0.99955
          Z              -0.00000     1.00000    -0.00000
   Rotational Symmetry Number is   1
   The Molecule is an Asymmetric Top
   Translational Enthalpy:        0.889 kcal/mol
   Rotational Enthalpy:           0.889 kcal/mol
   Vibrational Enthalpy:         30.598 kcal/mol
   gas constant (RT):             0.592 kcal/mol
   Translational Entropy:        36.674  cal/mol.K
   Rotational Entropy:           21.475  cal/mol.K
   Vibrational Entropy:          15.974  cal/mol.K

   Total Enthalpy:               32.968 kcal/mol
   Total Entropy:                74.124  cal/mol.K

 Total job time:  183.17s(wall), 495.64s(cpu)
        *  Thank you very much for using Q-Chem.  Have a nice day.  *
