 Q-Chem 6.1, Q-Chem, Inc., Pleasanton, CA (2023)
 Q-Chem 6.1.1 for Intel X86 EM64T Linux

User input:
--------------------------------------------------------------
$molecule
0 1
--
0 1
H   -1.3553034289  -0.0000930241   0.9664648996
Si  -2.5356824489  -0.0000287250   0.0221300774
C   -2.4232162298  -1.5502718731  -1.0385199742
H   -1.5002998945  -1.5598392918  -1.6405405904
H   -2.4315848151  -2.4620695794  -0.4200447829
H   -3.2758814846  -1.6093902651  -1.7348260346
C   -4.0945972514  -0.0001711935   1.0738535108
H   -4.1405666004  -0.8906294315   1.7206683198
H   -4.9940529883  -0.0001218591   0.4363815958
H   -4.1406024983   0.8901489858   1.7208559087
C   -2.4232944334   1.5504291567  -1.0382141581
H   -3.2759610782   1.6096379283  -1.7345108650
H   -1.5003768531   1.5601648051  -1.6402300675
H   -2.4317143088   2.4621046266  -0.4195595939
--
0 1
I    1.2529846122   0.0000125519   0.2601081051
C    3.1990365395   0.0000549798  -0.2610677547
N    4.3171690258   0.0001708917  -0.5614860777
$end

$rem
JOBTYPE  OPT
GEN_SCFMAN  TRUE
VFB_CTA  FORWARD
METHOD  WB97X-V
BASIS  DEF2-SVPD
UNRESTRICTED  FALSE
MAX_SCF_CYCLES  2000
THRESH  14
SCF_CONVERGENCE  9
MEM_TOTAL  8000
MEM_STATIC  2000
SCF_GUESS  FRAGMO
SYMMETRY  FALSE
SYM_IGNORE  FALSE
SCF_ALGORITHM  DIIS
BASIS_LIN_DEP_THRESH  6
IDERIV  1
SCFMI_MODE  0
XC_GRID  000075000302
NL_GRID  1
FD_MAT_VEC_PROD  FALSE
GEOM_OPT_TOL_GRADIENT  50
GEOM_OPT_TOL_DISPLACEMENT  50
GEOM_OPT_TOL_ENERGY  10
GEOM_OPT_DRIVER  OPTIMIZE
GEOM_OPT_MAX_CYCLES  200
$end

--------------------------------------------------------------

   16    -800.0172674314      4.21e-10     00000 Convergence criterion met
   13    -800.0200656433      7.68e-10     00000 Convergence criterion met
 Total energy in the final basis set =     -800.0200656433
   15    -800.0176442152      6.94e-10     00000 Convergence criterion met
   13    -800.0201490394      6.21e-10     00000 Convergence criterion met
 Total energy in the final basis set =     -800.0201490394
   15    -800.0179977890      4.71e-10     00000 Convergence criterion met
   13    -800.0201919590      4.90e-10     00000 Convergence criterion met
 Total energy in the final basis set =     -800.0201919590
   14    -800.0181923328      7.96e-10     00000 Convergence criterion met
   13    -800.0201760944      4.13e-10     00000 Convergence criterion met
 Total energy in the final basis set =     -800.0201760944
   14    -800.0182375401      8.04e-10     00000 Convergence criterion met
   13    -800.0202044180      4.08e-10     00000 Convergence criterion met
 Total energy in the final basis set =     -800.0202044180
 **  OPTIMIZATION CONVERGED  **
 Total job time:  1277.11s(wall), 16053.91s(cpu)
        *  Thank you very much for using Q-Chem.  Have a nice day.  *
 Q-Chem 6.1, Q-Chem, Inc., Pleasanton, CA (2023)
 Q-Chem 6.1.1 for Intel X86 EM64T Linux

User input:
--------------------------------------------------------------

$molecule
read
$end

$rem
JOBTYPE  FREQ
GEN_SCFMAN  TRUE
VFB_CTA  FORWARD
METHOD  WB97X-V
BASIS  DEF2-SVPD
UNRESTRICTED  FALSE
MAX_SCF_CYCLES  2000
THRESH  14
SCF_CONVERGENCE  9
MEM_TOTAL  8000
MEM_STATIC  2000
SCF_GUESS  FRAGMO
SYMMETRY  FALSE
SYM_IGNORE  FALSE
SCF_ALGORITHM  DIIS
BASIS_LIN_DEP_THRESH  6
IDERIV  1
SCFMI_MODE  0
XC_GRID  000075000302
NL_GRID  1
FD_MAT_VEC_PROD  FALSE
GEOM_OPT_TOL_GRADIENT  50
GEOM_OPT_TOL_DISPLACEMENT  50
GEOM_OPT_TOL_ENERGY  10
GEOM_OPT_DRIVER  OPTIMIZE
GEOM_OPT_MAX_CYCLES  200
$end
--------------------------------------------------------------

   15    -800.0183056337      4.86e-10     00000 Convergence criterion met
   13    -800.0202169418      4.03e-10     00000 Convergence criterion met
 Total energy in the final basis set =     -800.0202169418
   15    -800.0183074534      4.85e-10     00000 Convergence criterion met
   13    -800.0202190962      4.03e-10     00000 Convergence criterion met
 Total energy in the final basis set =     -800.0202190962
   15    -800.0183074478      4.85e-10     00000 Convergence criterion met
   13    -800.0202190907      4.03e-10     00000 Convergence criterion met
 Total energy in the final basis set =     -800.0202190907
   15    -800.0183074102      4.85e-10     00000 Convergence criterion met
   13    -800.0202189446      4.03e-10     00000 Convergence criterion met
 Total energy in the final basis set =     -800.0202189446
   15    -800.0183071464      4.85e-10     00000 Convergence criterion met
   13    -800.0202188977      4.03e-10     00000 Convergence criterion met
 Total energy in the final basis set =     -800.0202188977

                    Orbital Energies (a.u.)
 --------------------------------------------------------------

 Alpha MOs
 -- Occupied --
-66.1409 -14.4399 -10.3552 -10.2798 -10.2794 -10.2794  -7.0052  -5.3956
 -5.0431  -5.0221  -5.0220  -3.7502  -3.7488  -3.7488  -2.0958  -2.0888
 -2.0887  -2.0713  -2.0713  -1.0417  -0.8973  -0.8552  -0.8145  -0.8142
 -0.6220  -0.5995  -0.5430  -0.5310  -0.5307  -0.5109  -0.5109  -0.4998
 -0.4915  -0.4915  -0.4851  -0.4274  -0.4209  -0.4205  -0.3935  -0.3932

          Ground-State Mulliken Net Atomic Charges

     Atom                 Charge (a.u.)
  ----------------------------------------
      1 H                     0.259932
      2 Si                   -0.577117
      3 C                     0.161152
      4 H                    -0.055769
      5 H                    -0.025942
      6 H                    -0.021147
      7 C                     0.255425
      8 H                    -0.012825
      9 H                    -0.000990
     10 H                    -0.012832
     11 C                     0.161160
     12 H                    -0.021157
     13 H                    -0.055785
     14 H                    -0.025940
     15 I                     0.331359
     16 C                    -0.260389
     17 N                    -0.099136
  ----------------------------------------
  Sum of atomic charges =     0.000000

                    Cartesian Multipole Moments
 -----------------------------------------------------------------
    Charge (ESU x 10^10)
                 0.0000
    Dipole Moment (Debye)
         X      -5.1257      Y       0.0002      Z       0.5507
       Tot       5.1552
    Quadrupole Moments (Debye-Ang)
        XX     -89.3813     XY       0.0010     YY     -72.8949
        XZ       4.2879     YZ      -0.0001     ZZ     -73.5631

             Standard Nuclear Orientation (Angstroms)
    I     Atom           X                Y                Z
 ----------------------------------------------------------------
    1      H      -1.4317063669     0.0000824360     1.0159783445
    2      Si     -2.5752409210    -0.0000099589     0.0286897718
    3      C      -2.4287510913    -1.5500361879    -1.0291876685
    4      H      -1.4831704368    -1.5655767360    -1.5947993505
    5      H      -2.4676565402    -2.4627047105    -0.4131459430
    6      H      -3.2534166945    -1.6029252871    -1.7589632193
    7      C      -4.1748728746     0.0002586391     1.0183676266
    8      H      -4.2469122974    -0.8899719455     1.6631383083
    9      H      -5.0484511169     0.0001936864     0.3458161199
   10      H      -4.2468051172     0.8907236363     1.6628266244
   11      C      -2.4285664966     1.5496416427    -1.0297122720
   12      H      -3.2532539420     1.6024012032    -1.7594726099
   13      H      -1.4830071928     1.5648608067    -1.5953680523
   14      H      -2.4673206394     2.4625227790    -0.4139759611
   15      I       1.3131437540     0.0000485003     0.2727896697
   16      C       3.2488747807    -0.0000360461    -0.2735277971
   17      N       4.3626211954    -0.0001436068    -0.5895975562
 ----------------------------------------------------------------

 Frequency:        18.10                  31.85                  45.64
 Force Cnst:      0.0006                 0.0034                 0.0078
 Red. Mass:       3.3215                 5.6756                 6.3697
 IR Intens:        0.443                  1.778                  2.171
 Frequency:        47.38                  62.94                 121.78
 Force Cnst:      0.0117                 0.0085                 0.0089
 Red. Mass:       8.8102                 3.6582                 1.0175
 IR Intens:        1.800                  1.683                  0.001
 Frequency:       153.46                 159.20                 200.23
 Force Cnst:      0.0144                 0.0157                 0.0528
 Red. Mass:       1.0395                 1.0541                 2.2365
 IR Intens:        0.000                  0.002                  0.747
 Frequency:       201.07                 238.29                 327.22
 Force Cnst:      0.0535                 0.0784                 0.7890
 Red. Mass:       2.2452                 2.3433                12.5065
 IR Intens:        0.527                  1.345                  2.529
 Frequency:       327.74                 496.91                 601.99
 Force Cnst:      0.7922                 2.1494                 0.2275
 Red. Mass:      12.5178                14.7742                 1.0653
 IR Intens:        2.158                 11.171                  7.756
 Frequency:       618.90                 628.70                 666.65
 Force Cnst:      0.2673                 0.6103                 0.3061
 Red. Mass:       1.1845                 2.6207                 1.1691
 IR Intens:       20.745                  1.412                  0.009
 Frequency:       719.86                 722.48                 840.28
 Force Cnst:      0.8379                 0.8386                 0.5830
 Red. Mass:       2.7444                 2.7268                 1.4013
 IR Intens:        6.447                  5.117                 13.568
 Frequency:       841.68                 859.71                 907.71
 Force Cnst:      0.6105                 0.6881                 0.6587
 Red. Mass:       1.4628                 1.5802                 1.3570
 IR Intens:       18.967                106.297                139.081
 Frequency:       927.40                1274.35                1274.96
 Force Cnst:      0.6462                 1.2282                 1.2277
 Red. Mass:       1.2752                 1.2836                 1.2819
 IR Intens:      208.205                 39.674                 44.081
 Frequency:      1282.75                1423.73                1426.09
 Force Cnst:      1.2087                 1.2561                 1.2574
 Red. Mass:       1.2468                 1.0517                 1.0494
 IR Intens:       10.292                  0.096                  0.205
 Frequency:      1427.26                1435.48                1435.84
 Force Cnst:      1.2594                 1.2696                 1.2703
 Red. Mass:       1.0493                 1.0458                 1.0458
 IR Intens:        0.332                  2.628                  3.619
 Frequency:      1443.53                2140.93                2364.32
 Force Cnst:      1.2815                 2.8040                41.9163
 Red. Mass:       1.0438                 1.0383                12.7269
 IR Intens:       10.373                417.422                  7.896
 Frequency:      3047.50                3047.77                3049.25
 Force Cnst:      5.6751                 5.6767                 5.6807
 Red. Mass:       1.0371                 1.0373                 1.0370
 IR Intens:        1.713                  2.921                  3.539
 Frequency:      3138.87                3139.76                3142.05
 Force Cnst:      6.3945                 6.3963                 6.4066
 Red. Mass:       1.1016                 1.1013                 1.1014
 IR Intens:        0.171                 13.205                 11.626
 Frequency:      3144.10                3144.44                3148.15
 Force Cnst:      6.4170                 6.4178                 6.4349
 Red. Mass:       1.1018                 1.1017                 1.1020
 IR Intens:        3.736                 10.969                  7.739

 STANDARD THERMODYNAMIC QUANTITIES AT   298.15 K  AND     1.00 ATM

   This Molecule has  0 Imaginary Frequencies
   Zero point vibrational energy:       79.625 kcal/mol

   Atom    1 Element H  Has Mass    1.00783
   Atom    2 Element Si Has Mass   27.97693
   Atom    3 Element C  Has Mass   12.00000
   Atom    4 Element H  Has Mass    1.00783
   Atom    5 Element H  Has Mass    1.00783
   Atom    6 Element H  Has Mass    1.00783
   Atom    7 Element C  Has Mass   12.00000
   Atom    8 Element H  Has Mass    1.00783
   Atom    9 Element H  Has Mass    1.00783
   Atom   10 Element H  Has Mass    1.00783
   Atom   11 Element C  Has Mass   12.00000
   Atom   12 Element H  Has Mass    1.00783
   Atom   13 Element H  Has Mass    1.00783
   Atom   14 Element H  Has Mass    1.00783
   Atom   15 Element I  Has Mass  126.90440
   Atom   16 Element C  Has Mass   12.00000
   Atom   17 Element N  Has Mass   14.00307
   Molecular Mass:   226.962700 amu
   Principal axes and moments of inertia in amu*Bohr^2:
                             1           2           3
    Eigenvalues --      545.67932  4669.12877  4706.14182
          X              -0.99999     0.00000     0.00383
          Y              -0.00000    -1.00000     0.00007
          Z              -0.00383    -0.00007    -0.99999
   Rotational Symmetry Number is   1
   The Molecule is an Asymmetric Top
   Translational Enthalpy:        0.889 kcal/mol
   Rotational Enthalpy:           0.889 kcal/mol
   Vibrational Enthalpy:         85.909 kcal/mol
   gas constant (RT):             0.592 kcal/mol
   Translational Entropy:        42.161  cal/mol.K
   Rotational Entropy:           30.862  cal/mol.K
   Vibrational Entropy:          47.511  cal/mol.K

   Total Enthalpy:               88.279 kcal/mol
   Total Entropy:               120.534  cal/mol.K

 Total job time:  10979.34s(wall), 137932.58s(cpu)
        *  Thank you very much for using Q-Chem.  Have a nice day.  *
