 Q-Chem 6.1, Q-Chem, Inc., Pleasanton, CA (2023)
 Q-Chem 6.1.1 for Intel X86 EM64T Linux

User input:
--------------------------------------------------------------
$molecule
0 1
--
0 1
H   -1.3553034289  -0.0000930241   0.9664648996
Si  -2.5356824489  -0.0000287250   0.0221300774
C   -2.4232162298  -1.5502718731  -1.0385199742
H   -1.5002998945  -1.5598392918  -1.6405405904
H   -2.4315848151  -2.4620695794  -0.4200447829
H   -3.2758814846  -1.6093902651  -1.7348260346
C   -4.0945972514  -0.0001711935   1.0738535108
H   -4.1405666004  -0.8906294315   1.7206683198
H   -4.9940529883  -0.0001218591   0.4363815958
H   -4.1406024983   0.8901489858   1.7208559087
C   -2.4232944334   1.5504291567  -1.0382141581
H   -3.2759610782   1.6096379283  -1.7345108650
H   -1.5003768531   1.5601648051  -1.6402300675
H   -2.4317143088   2.4621046266  -0.4195595939
--
0 1
I    1.2529846122   0.0000125519   0.2601081051
C    3.1990365395   0.0000549798  -0.2610677547
N    4.3171690258   0.0001708917  -0.5614860777
$end

$rem
JOBTYPE  OPT
GEN_SCFMAN  TRUE
VFB_CTA  BACKWARD
METHOD  WB97X-V
BASIS  DEF2-SVPD
UNRESTRICTED  FALSE
MAX_SCF_CYCLES  2000
THRESH  14
SCF_CONVERGENCE  9
MEM_TOTAL  8000
MEM_STATIC  2000
SCF_GUESS  FRAGMO
SYMMETRY  FALSE
SYM_IGNORE  FALSE
SCF_ALGORITHM  DIIS
BASIS_LIN_DEP_THRESH  6
IDERIV  1
SCFMI_MODE  0
XC_GRID  000075000302
NL_GRID  1
FD_MAT_VEC_PROD  FALSE
GEOM_OPT_TOL_GRADIENT  50
GEOM_OPT_TOL_DISPLACEMENT  50
GEOM_OPT_TOL_ENERGY  10
GEOM_OPT_DRIVER  OPTIMIZE
GEOM_OPT_MAX_CYCLES  200
$end

--------------------------------------------------------------

   16    -800.0172674314      4.21e-10     00000 Convergence criterion met
   12    -800.0183799909      7.36e-10     00000 Convergence criterion met
 Total energy in the final basis set =     -800.0183799909
   14    -800.0181561137      8.38e-10     00000 Convergence criterion met
   12    -800.0190211450      4.03e-10     00000 Convergence criterion met
 Total energy in the final basis set =     -800.0190211450
   14    -800.0185562876      4.11e-10     00000 Convergence criterion met
   11    -800.0192502984      6.37e-10     00000 Convergence criterion met
 Total energy in the final basis set =     -800.0192502984
   13    -800.0184489477      7.49e-10     00000 Convergence criterion met
   11    -800.0189909425      3.64e-10     00000 Convergence criterion met
 Total energy in the final basis set =     -800.0189909425
   13    -800.0187415949      9.64e-10     00000 Convergence criterion met
   11    -800.0193468215      4.74e-10     00000 Convergence criterion met
 Total energy in the final basis set =     -800.0193468215
 **  OPTIMIZATION CONVERGED  **
 Total job time:  1289.74s(wall), 15963.57s(cpu)
        *  Thank you very much for using Q-Chem.  Have a nice day.  *
 Q-Chem 6.1, Q-Chem, Inc., Pleasanton, CA (2023)
 Q-Chem 6.1.1 for Intel X86 EM64T Linux

User input:
--------------------------------------------------------------

$molecule
read
$end

$rem
JOBTYPE  FREQ
GEN_SCFMAN  TRUE
VFB_CTA  BACKWARD
METHOD  WB97X-V
BASIS  DEF2-SVPD
UNRESTRICTED  FALSE
MAX_SCF_CYCLES  2000
THRESH  14
SCF_CONVERGENCE  9
MEM_TOTAL  8000
MEM_STATIC  2000
SCF_GUESS  FRAGMO
SYMMETRY  FALSE
SYM_IGNORE  FALSE
SCF_ALGORITHM  DIIS
BASIS_LIN_DEP_THRESH  6
IDERIV  1
SCFMI_MODE  0
XC_GRID  000075000302
NL_GRID  1
FD_MAT_VEC_PROD  FALSE
GEOM_OPT_TOL_GRADIENT  50
GEOM_OPT_TOL_DISPLACEMENT  50
GEOM_OPT_TOL_ENERGY  10
GEOM_OPT_DRIVER  OPTIMIZE
GEOM_OPT_MAX_CYCLES  200
$end
--------------------------------------------------------------

   14    -800.0187781741      5.18e-10     00000 Convergence criterion met
   11    -800.0194099428      6.10e-10     00000 Convergence criterion met
 Total energy in the final basis set =     -800.0194099428
   14    -800.0187802769      5.18e-10     00000 Convergence criterion met
   11    -800.0194120756      6.11e-10     00000 Convergence criterion met
 Total energy in the final basis set =     -800.0194120756
   14    -800.0187802714      5.18e-10     00000 Convergence criterion met
   11    -800.0194120701      6.11e-10     00000 Convergence criterion met
 Total energy in the final basis set =     -800.0194120701
   14    -800.0187801000      5.18e-10     00000 Convergence criterion met
   11    -800.0194119056      6.11e-10     00000 Convergence criterion met
 Total energy in the final basis set =     -800.0194119056
   14    -800.0187800718      5.18e-10     00000 Convergence criterion met
   11    -800.0194118636      6.11e-10     00000 Convergence criterion met
 Total energy in the final basis set =     -800.0194118636

                    Orbital Energies (a.u.)
 --------------------------------------------------------------

 Alpha MOs
 -- Occupied --
-66.1368 -14.4431 -10.3595 -10.2776 -10.2776 -10.2776  -7.0082  -5.3920
 -5.0460  -5.0251  -5.0251  -3.7464  -3.7453  -3.7452  -2.0987  -2.0917
 -2.0916  -2.0744  -2.0744  -1.0447  -0.9006  -0.8530  -0.8124  -0.8124
 -0.6190  -0.6018  -0.5412  -0.5292  -0.5286  -0.5091  -0.5089  -0.4981
 -0.4947  -0.4945  -0.4874  -0.4254  -0.4185  -0.4182  -0.3959  -0.3957

          Ground-State Mulliken Net Atomic Charges

     Atom                 Charge (a.u.)
  ----------------------------------------
      1 H                     0.370333
      2 Si                   -0.480802
      3 C                     0.098223
      4 H                    -0.020505
      5 H                    -0.027030
      6 H                    -0.017842
      7 C                     0.096958
      8 H                    -0.017640
      9 H                    -0.019269
     10 H                    -0.017641
     11 C                     0.098217
     12 H                    -0.017840
     13 H                    -0.020501
     14 H                    -0.027031
     15 I                     0.427226
     16 C                    -0.265593
     17 N                    -0.159263
  ----------------------------------------
  Sum of atomic charges =     0.000000

                    Cartesian Multipole Moments
 -----------------------------------------------------------------
    Charge (ESU x 10^10)
                -0.0000
    Dipole Moment (Debye)
         X      -4.7502      Y      -0.0001      Z       0.5918
       Tot       4.7870
    Quadrupole Moments (Debye-Ang)
        XX     -89.5887     XY      -0.0007     YY     -73.0005
        XZ       4.5323     YZ       0.0001     ZZ     -73.7407

             Standard Nuclear Orientation (Angstroms)
    I     Atom           X                Y                Z
 ----------------------------------------------------------------
    1      H      -1.5442608584    -0.0000822323     1.0772907725
    2      Si     -2.6406984457     0.0000085670     0.0436422108
    3      C      -2.4487701192    -1.5487956707    -1.0106518293
    4      H      -1.4760214650    -1.5670837986    -1.5285928540
    5      H      -2.5214394164    -2.4627094408    -0.3994172777
    6      H      -3.2360046170    -1.5974614829    -1.7809798174
    7      C      -4.2889327449    -0.0001086663     0.9514833989
    8      H      -4.3927378782    -0.8902990140     1.5922295577
    9      H      -5.1294702137    -0.0000455502     0.2381142059
   10      H      -4.3927625565     0.8899442030     1.5924164608
   11      C      -2.4488097778     1.5490337869    -1.0103334033
   12      H      -3.2360355160     1.5978321948    -1.7806619029
   13      H      -1.4760543749     1.5674581982    -1.5282569618
   14      H      -2.5215154676     2.4628201361    -0.3989127735
   15      I       1.3520468169    -0.0000496325     0.2796754265
   16      C       3.2761345844     0.0000902846    -0.2914380655
   17      N       4.3856953793     0.0001169947    -0.6216255102
 ----------------------------------------------------------------

 Frequency:        24.70                  29.07                  41.00
 Force Cnst:      0.0014                 0.0036                 0.0048
 Red. Mass:       4.0321                 7.2745                 4.8817
 IR Intens:        0.924                  2.136                  1.745
 Frequency:        45.12                  69.62                 131.70
 Force Cnst:      0.0081                 0.0104                 0.0104
 Red. Mass:       6.7144                 3.6271                 1.0146
 IR Intens:        0.958                  0.402                  0.002
 Frequency:       161.63                 163.56                 200.88
 Force Cnst:      0.0159                 0.0166                 0.0530
 Red. Mass:       1.0354                 1.0523                 2.2301
 IR Intens:        0.003                  0.005                  0.738
 Frequency:       201.77                 237.45                 324.23
 Force Cnst:      0.0543                 0.0776                 0.7773
 Red. Mass:       2.2617                 2.3366                12.5497
 IR Intens:        0.701                  1.585                  2.350
 Frequency:       324.38                 504.36                 607.44
 Force Cnst:      0.7780                 2.3087                 0.2325
 Red. Mass:      12.5491                15.4042                 1.0696
 IR Intens:        2.019                  4.233                  7.281
 Frequency:       623.67                 628.42                 665.75
 Force Cnst:      0.2990                 0.5080                 0.3053
 Red. Mass:       1.3049                 2.1833                 1.1689
 IR Intens:        9.251                  2.082                  0.004
 Frequency:       718.79                 722.13                 841.38
 Force Cnst:      0.8403                 0.8400                 0.5983
 Red. Mass:       2.7604                 2.7339                 1.4345
 IR Intens:        6.838                  6.910                 19.095
 Frequency:       842.42                 859.91                 915.99
 Force Cnst:      0.6200                 0.6879                 0.6499
 Red. Mass:       1.4827                 1.5790                 1.3146
 IR Intens:       25.668                 91.818                136.842
 Frequency:       936.54                1274.11                1274.48
 Force Cnst:      0.6462                 1.2288                 1.2270
 Red. Mass:       1.2505                 1.2847                 1.2821
 IR Intens:      184.983                 40.210                 44.285
 Frequency:      1281.46                1424.88                1426.65
 Force Cnst:      1.2067                 1.2582                 1.2585
 Red. Mass:       1.2472                 1.0519                 1.0495
 IR Intens:       11.289                  0.118                  0.155
 Frequency:      1427.12                1436.86                1436.88
 Force Cnst:      1.2592                 1.2722                 1.2723
 Red. Mass:       1.0493                 1.0459                 1.0459
 IR Intens:        0.386                  2.467                  3.193
 Frequency:      1443.75                2175.50                2365.66
 Force Cnst:      1.2819                 2.8957                42.0863
 Red. Mass:       1.0438                 1.0384                12.7639
 IR Intens:       10.601                265.796                  9.508
 Frequency:      3047.15                3047.39                3049.28
 Force Cnst:      5.6737                 5.6753                 5.6813
 Red. Mass:       1.0371                 1.0372                 1.0371
 IR Intens:        2.020                  3.410                  3.702
 Frequency:      3138.64                3139.66                3141.68
 Force Cnst:      6.3940                 6.3961                 6.4053
 Red. Mass:       1.1016                 1.1013                 1.1015
 IR Intens:        0.027                 15.245                 11.250
 Frequency:      3143.27                3143.65                3146.83
 Force Cnst:      6.4134                 6.4142                 6.4284
 Red. Mass:       1.1017                 1.1016                 1.1018
 IR Intens:        3.767                 11.971                  8.589

 STANDARD THERMODYNAMIC QUANTITIES AT   298.15 K  AND     1.00 ATM

   This Molecule has  0 Imaginary Frequencies
   Zero point vibrational energy:       79.751 kcal/mol

   Atom    1 Element H  Has Mass    1.00783
   Atom    2 Element Si Has Mass   27.97693
   Atom    3 Element C  Has Mass   12.00000
   Atom    4 Element H  Has Mass    1.00783
   Atom    5 Element H  Has Mass    1.00783
   Atom    6 Element H  Has Mass    1.00783
   Atom    7 Element C  Has Mass   12.00000
   Atom    8 Element H  Has Mass    1.00783
   Atom    9 Element H  Has Mass    1.00783
   Atom   10 Element H  Has Mass    1.00783
   Atom   11 Element C  Has Mass   12.00000
   Atom   12 Element H  Has Mass    1.00783
   Atom   13 Element H  Has Mass    1.00783
   Atom   14 Element H  Has Mass    1.00783
   Atom   15 Element I  Has Mass  126.90440
   Atom   16 Element C  Has Mass   12.00000
   Atom   17 Element N  Has Mass   14.00307
   Molecular Mass:   226.962700 amu
   Principal axes and moments of inertia in amu*Bohr^2:
                             1           2           3
    Eigenvalues --      538.10367  4822.24352  4866.20766
          X              -0.99999     0.00000    -0.00371
          Y               0.00000     1.00000     0.00006
          Z              -0.00371    -0.00006     0.99999
   Rotational Symmetry Number is   1
   The Molecule is an Asymmetric Top
   Translational Enthalpy:        0.889 kcal/mol
   Rotational Enthalpy:           0.889 kcal/mol
   Vibrational Enthalpy:         86.002 kcal/mol
   gas constant (RT):             0.592 kcal/mol
   Translational Entropy:        42.161  cal/mol.K
   Rotational Entropy:           30.913  cal/mol.K
   Vibrational Entropy:          46.867  cal/mol.K

   Total Enthalpy:               88.372 kcal/mol
   Total Entropy:               119.942  cal/mol.K

 Total job time:  10124.62s(wall), 124828.96s(cpu)
        *  Thank you very much for using Q-Chem.  Have a nice day.  *
