 Q-Chem 6.1, Q-Chem, Inc., Pleasanton, CA (2023)
 Q-Chem 6.1.1 for Intel X86 EM64T Linux

User input:
--------------------------------------------------------------
$molecule
0 1
--
0 1
C    2.9099427164  -1.5455816664   1.0287056806
Si   3.1315821078  -0.0004365354  -0.0250327230
C    4.8108030443  -0.0036246845  -0.8768617423
C    2.9100490034   1.5521147824   1.0178015819
H    2.0709240204  -0.0037859214  -1.0959634872
H    2.9966513272  -2.4612846418   0.4219707332
H    3.6770752202  -1.5927888082   1.8191986691
H    1.9231777602  -1.5592076496   1.5187816698
H    4.9358748887  -0.8960269843  -1.5106045549
H    4.9361024130   0.8843421917  -1.5167609654
H    5.6258216346  -0.0011618467  -0.1343730854
H    1.9231385571   1.5691704169   1.5074978608
H    3.6769769086   1.6051735502   1.8081040502
H    2.9967423708   2.4633994551   0.4044386901
--
0 1
I   -0.7477041975  -0.0026311828  -0.3620324281
C   -2.8116506363  -0.0021542445   0.2072182160
F   -3.1028158745   1.0809723613   0.9284464012
F   -3.5978441704  -0.0084382020  -0.8694556745
F   -3.1004120749  -1.0785913800   0.9393044422
$end

$rem
JOBTYPE  OPT
GEN_SCFMAN  TRUE
VFB_CTA  BACKWARD
METHOD  WB97X-V
BASIS  DEF2-SVPD
UNRESTRICTED  FALSE
MAX_SCF_CYCLES  2000
THRESH  14
SCF_CONVERGENCE  9
MEM_TOTAL  8000
MEM_STATIC  2000
SCF_GUESS  FRAGMO
SYMMETRY  FALSE
SYM_IGNORE  FALSE
SCF_ALGORITHM  DIIS
BASIS_LIN_DEP_THRESH  6
IDERIV  1
SCFMI_MODE  0
XC_GRID  000075000302
NL_GRID  1
FD_MAT_VEC_PROD  FALSE
GEOM_OPT_TOL_GRADIENT  50
GEOM_OPT_TOL_DISPLACEMENT  50
GEOM_OPT_TOL_ENERGY  10
GEOM_OPT_DRIVER  OPTIMIZE
GEOM_OPT_MAX_CYCLES  200
$end

--------------------------------------------------------------

   15   -1044.5819668878      7.43e-10     00000 Convergence criterion met
   11   -1044.5828322555      9.73e-10     00000 Convergence criterion met
 Total energy in the final basis set =    -1044.5828322555
   14   -1044.5823276783      8.65e-10     00000 Convergence criterion met
   11   -1044.5830800510      5.73e-10     00000 Convergence criterion met
 Total energy in the final basis set =    -1044.5830800510
   14   -1044.5825139968      5.12e-10     00000 Convergence criterion met
   11   -1044.5831817517      3.92e-10     00000 Convergence criterion met
 Total energy in the final basis set =    -1044.5831817517
   14   -1044.5825596314      4.28e-10     00000 Convergence criterion met
   11   -1044.5831992315      3.43e-10     00000 Convergence criterion met
 Total energy in the final basis set =    -1044.5831992315
   14   -1044.5825795577      4.06e-10     00000 Convergence criterion met
   11   -1044.5832086866      3.25e-10     00000 Convergence criterion met
 Total energy in the final basis set =    -1044.5832086866
 **  OPTIMIZATION CONVERGED  **
 Total job time:  1691.59s(wall), 21448.22s(cpu)
        *  Thank you very much for using Q-Chem.  Have a nice day.  *
 Q-Chem 6.1, Q-Chem, Inc., Pleasanton, CA (2023)
 Q-Chem 6.1.1 for Intel X86 EM64T Linux

User input:
--------------------------------------------------------------

$molecule
read
$end

$rem
JOBTYPE  FREQ
GEN_SCFMAN  TRUE
VFB_CTA  BACKWARD
METHOD  WB97X-V
BASIS  DEF2-SVPD
UNRESTRICTED  FALSE
MAX_SCF_CYCLES  2000
THRESH  14
SCF_CONVERGENCE  9
MEM_TOTAL  8000
MEM_STATIC  2000
SCF_GUESS  FRAGMO
SYMMETRY  FALSE
SYM_IGNORE  FALSE
SCF_ALGORITHM  DIIS
BASIS_LIN_DEP_THRESH  6
IDERIV  1
SCFMI_MODE  0
XC_GRID  000075000302
NL_GRID  1
FD_MAT_VEC_PROD  FALSE
GEOM_OPT_TOL_GRADIENT  50
GEOM_OPT_TOL_DISPLACEMENT  50
GEOM_OPT_TOL_ENERGY  10
GEOM_OPT_DRIVER  OPTIMIZE
GEOM_OPT_MAX_CYCLES  200
$end
--------------------------------------------------------------

   14   -1044.5825938399      5.18e-10     00000 Convergence criterion met
   11   -1044.5832371867      3.46e-10     00000 Convergence criterion met
 Total energy in the final basis set =    -1044.5832371867
   14   -1044.5825932806      5.17e-10     00000 Convergence criterion met
   11   -1044.5832367744      3.46e-10     00000 Convergence criterion met
 Total energy in the final basis set =    -1044.5832367744
   14   -1044.5825934855      5.18e-10     00000 Convergence criterion met
   11   -1044.5832367843      3.46e-10     00000 Convergence criterion met
 Total energy in the final basis set =    -1044.5832367843
   14   -1044.5825936807      5.18e-10     00000 Convergence criterion met
   11   -1044.5832370022      3.46e-10     00000 Convergence criterion met
 Total energy in the final basis set =    -1044.5832370022
   14   -1044.5825935278      5.17e-10     00000 Convergence criterion met
   11   -1044.5832369987      3.46e-10     00000 Convergence criterion met
 Total energy in the final basis set =    -1044.5832369987

                    Orbital Energies (a.u.)
 --------------------------------------------------------------

 Alpha MOs
 -- Occupied --
-66.1278 -24.8379 -24.8378 -24.8376 -10.5902 -10.2706 -10.2699 -10.2699
 -6.9775  -5.3830  -5.0134  -4.9954  -4.9953  -3.7372  -3.7364  -3.7363
 -2.0661  -2.0605  -2.0604  -2.0454  -2.0454  -1.4679  -1.3717  -1.3715
 -0.8974  -0.8454  -0.8215  -0.8051  -0.8047  -0.7437  -0.7437  -0.6953
 -0.6160  -0.6159  -0.6003  -0.5780  -0.5780  -0.5533  -0.5345  -0.5219
 -0.5214  -0.5020  -0.5016  -0.4905  -0.4759  -0.4152  -0.4104  -0.4101
 -0.3893  -0.3891

          Ground-State Mulliken Net Atomic Charges

     Atom                 Charge (a.u.)
  ----------------------------------------
      1 C                     0.098149
      2 Si                   -0.490863
      3 C                     0.099770
      4 C                     0.098164
      5 H                     0.400516
      6 H                    -0.027012
      7 H                    -0.018910
      8 H                    -0.021636
      9 H                    -0.021610
     10 H                    -0.021606
     11 H                    -0.022049
     12 H                    -0.021646
     13 H                    -0.018914
     14 H                    -0.027009
     15 I                     0.298606
     16 C                     0.828232
     17 F                    -0.367959
     18 F                    -0.396829
     19 F                    -0.367393
  ----------------------------------------
  Sum of atomic charges =     0.000000

                    Cartesian Multipole Moments
 -----------------------------------------------------------------
    Charge (ESU x 10^10)
                 0.0000
    Dipole Moment (Debye)
         X       1.8074      Y      -0.0014      Z       0.1758
       Tot       1.8159
    Quadrupole Moments (Debye-Ang)
        XX     -81.8094     XY       0.0044     YY     -84.1113
        XZ       1.0281     YZ      -0.0020     ZZ     -84.2840

             Standard Nuclear Orientation (Angstroms)
    I     Atom           X                Y                Z
 ----------------------------------------------------------------
    1      C       2.9836973511    -1.5489216859     0.9835763011
    2      Si      3.2637165358    -0.0000339217    -0.0521020420
    3      C       4.9936066131     0.0002349694    -0.7972495184
    4      C       2.9836919610     1.5481385328     0.9846458865
    5      H       2.2690537694     0.0003476882    -1.1809903617
    6      H       3.1114760309    -2.4626486359     0.3810404729
    7      H       3.7001544185    -1.5959655267     1.8203310919
    8      H       1.9683513312    -1.5682296981     1.4116807197
    9      H       5.1584380058    -0.8895498054    -1.4258067192
   10      H       5.1584246497     0.8904599794    -1.4251868482
   11      H       5.7622354699    -0.0000341519    -0.0068390758
   12      H       1.9683631327     1.5671323211     1.4128048548
   13      H       3.7001808635     1.5946252950     1.8214044962
   14      H       3.1114283374     2.4622806340     0.3827308393
   15      I      -0.7827028578     0.0002535029    -0.3785732071
   16      C      -2.8386461376    -0.0001675429     0.2141141422
   17      F      -3.1187802875     1.0791575753     0.9438066817
   18      F      -3.6349322871     0.0002667958    -0.8541538538
   19      F      -3.1186190667    -1.0802115366     0.9428047527
 ----------------------------------------------------------------

 Frequency:        12.15                  21.20                  22.04
 Force Cnst:      0.0006                 0.0018                 0.0030
 Red. Mass:       6.4105                 6.7462                10.4969
 IR Intens:        0.010                  0.019                  0.128
 Frequency:        37.12                  42.01                  53.34
 Force Cnst:      0.0027                 0.0068                 0.0053
 Red. Mass:       3.2749                 6.5198                 3.1716
 IR Intens:        0.109                  0.032                  0.557
 Frequency:       133.56                 161.28                 165.98
 Force Cnst:      0.0107                 0.0159                 0.0170
 Red. Mass:       1.0155                 1.0346                 1.0486
 IR Intens:        0.006                  0.012                  0.007
 Frequency:       200.86                 201.81                 234.37
 Force Cnst:      0.0530                 0.0541                 0.0749
 Red. Mass:       2.2303                 2.2566                 2.3159
 IR Intens:        0.751                  0.640                  1.663
 Frequency:       272.63                 272.99                 301.13
 Force Cnst:      0.8363                 0.8385                 1.3742
 Red. Mass:      19.0976                19.0964                25.7206
 IR Intens:        0.002                  0.049                  1.381
 Frequency:       539.46                 539.73                 605.38
 Force Cnst:      3.1033                 3.1062                 0.2311
 Red. Mass:      18.0991                18.0977                 1.0702
 IR Intens:        0.815                  0.962                  7.042
 Frequency:       615.50                 627.13                 665.78
 Force Cnst:      0.2436                 0.7298                 0.3051
 Red. Mass:       1.0913                 3.1495                 1.1684
 IR Intens:       12.295                  1.224                  0.004
 Frequency:       717.96                 719.11                 757.62
 Force Cnst:      0.8424                 0.8408                 5.7963
 Red. Mass:       2.7738                 2.7597                17.1395
 IR Intens:        7.151                  7.389                 40.324
 Frequency:       840.07                 840.99                 859.13
 Force Cnst:      0.5941                 0.6059                 0.6873
 Red. Mass:       1.4288                 1.4541                 1.5805
 IR Intens:       17.880                 21.872                 93.900
 Frequency:       915.58                 925.14                1108.70
 Force Cnst:      0.6503                 0.6477                 9.5960
 Red. Mass:       1.3166                 1.2843                13.2498
 IR Intens:      136.047                211.882                636.291
 Frequency:      1202.37                1202.95                1272.01
 Force Cnst:     11.3140                11.3284                 1.2231
 Red. Mass:      13.2828                13.2868                 1.2830
 IR Intens:      234.747                236.349                 46.653
 Frequency:      1272.29                1279.22                1425.18
 Force Cnst:      1.2251                 1.2036                 1.2589
 Red. Mass:       1.2845                 1.2483                 1.0520
 IR Intens:       42.086                 11.536                  0.125
 Frequency:      1427.13                1427.72                1436.97
 Force Cnst:      1.2595                 1.2605                 1.2726
 Red. Mass:       1.0496                 1.0495                 1.0461
 IR Intens:        0.129                  0.323                  3.306
 Frequency:      1437.24                1444.05                2184.51
 Force Cnst:      1.2732                 1.2827                 2.9215
 Red. Mass:       1.0462                 1.0440                 1.0391
 IR Intens:        2.282                  9.921                219.799
 Frequency:      3046.60                3046.82                3048.19
 Force Cnst:      5.6711                 5.6726                 5.6771
 Red. Mass:       1.0370                 1.0371                 1.0370
 IR Intens:        2.585                  4.361                  4.450
 Frequency:      3138.22                3138.91                3140.72
 Force Cnst:      6.3925                 6.3944                 6.4002
 Red. Mass:       1.1017                 1.1015                 1.1013
 IR Intens:        0.441                  8.752                 18.421
 Frequency:      3143.11                3143.55                3145.32
 Force Cnst:      6.4129                 6.4138                 6.4218
 Red. Mass:       1.1018                 1.1016                 1.1017
 IR Intens:        2.960                 13.141                 10.364

 STANDARD THERMODYNAMIC QUANTITIES AT   298.15 K  AND     1.00 ATM

   This Molecule has  0 Imaginary Frequencies
   Zero point vibrational energy:       83.505 kcal/mol

   Atom    1 Element C  Has Mass   12.00000
   Atom    2 Element Si Has Mass   27.97693
   Atom    3 Element C  Has Mass   12.00000
   Atom    4 Element C  Has Mass   12.00000
   Atom    5 Element H  Has Mass    1.00783
   Atom    6 Element H  Has Mass    1.00783
   Atom    7 Element H  Has Mass    1.00783
   Atom    8 Element H  Has Mass    1.00783
   Atom    9 Element H  Has Mass    1.00783
   Atom   10 Element H  Has Mass    1.00783
   Atom   11 Element H  Has Mass    1.00783
   Atom   12 Element H  Has Mass    1.00783
   Atom   13 Element H  Has Mass    1.00783
   Atom   14 Element H  Has Mass    1.00783
   Atom   15 Element I  Has Mass  126.90440
   Atom   16 Element C  Has Mass   12.00000
   Atom   17 Element F  Has Mass   18.99840
   Atom   18 Element F  Has Mass   18.99840
   Atom   19 Element F  Has Mass   18.99840
   Molecular Mass:   269.954830 amu
   Principal axes and moments of inertia in amu*Bohr^2:
                             1           2           3
    Eigenvalues --      854.27871  6615.08106  6658.90279
          X               1.00000     0.00000     0.00174
          Y               0.00000    -1.00000     0.00035
          Z              -0.00174     0.00035     1.00000
   Rotational Symmetry Number is   1
   The Molecule is an Asymmetric Top
   Translational Enthalpy:        0.889 kcal/mol
   Rotational Enthalpy:           0.889 kcal/mol
   Vibrational Enthalpy:         90.926 kcal/mol
   gas constant (RT):             0.592 kcal/mol
   Translational Entropy:        42.678  cal/mol.K
   Rotational Entropy:           31.998  cal/mol.K
   Vibrational Entropy:          59.075  cal/mol.K

   Total Enthalpy:               93.296 kcal/mol
   Total Entropy:               133.752  cal/mol.K

 Total job time:  15636.11s(wall), 201442.80s(cpu)
        *  Thank you very much for using Q-Chem.  Have a nice day.  *
