 Q-Chem 6.1, Q-Chem, Inc., Pleasanton, CA (2023)
 Q-Chem 6.1.1 for Intel X86 EM64T Linux

User input:
--------------------------------------------------------------
$molecule
0 1
--
0 1
C    2.9099427164  -1.5455816664   1.0287056806
Si   3.1315821078  -0.0004365354  -0.0250327230
C    4.8108030443  -0.0036246845  -0.8768617423
C    2.9100490034   1.5521147824   1.0178015819
H    2.0709240204  -0.0037859214  -1.0959634872
H    2.9966513272  -2.4612846418   0.4219707332
H    3.6770752202  -1.5927888082   1.8191986691
H    1.9231777602  -1.5592076496   1.5187816698
H    4.9358748887  -0.8960269843  -1.5106045549
H    4.9361024130   0.8843421917  -1.5167609654
H    5.6258216346  -0.0011618467  -0.1343730854
H    1.9231385571   1.5691704169   1.5074978608
H    3.6769769086   1.6051735502   1.8081040502
H    2.9967423708   2.4633994551   0.4044386901
--
0 1
I   -0.7477041975  -0.0026311828  -0.3620324281
C   -2.8116506363  -0.0021542445   0.2072182160
F   -3.1028158745   1.0809723613   0.9284464012
F   -3.5978441704  -0.0084382020  -0.8694556745
F   -3.1004120749  -1.0785913800   0.9393044422
$end

$rem
JOBTYPE  OPT
GEN_SCFMAN  TRUE
VFB_CTA  FORWARD
METHOD  WB97X-V
BASIS  DEF2-SVPD
UNRESTRICTED  FALSE
MAX_SCF_CYCLES  2000
THRESH  14
SCF_CONVERGENCE  9
MEM_TOTAL  8000
MEM_STATIC  2000
SCF_GUESS  FRAGMO
SYMMETRY  FALSE
SYM_IGNORE  FALSE
SCF_ALGORITHM  DIIS
BASIS_LIN_DEP_THRESH  6
IDERIV  1
SCFMI_MODE  0
XC_GRID  000075000302
NL_GRID  1
FD_MAT_VEC_PROD  FALSE
GEOM_OPT_TOL_GRADIENT  50
GEOM_OPT_TOL_DISPLACEMENT  50
GEOM_OPT_TOL_ENERGY  10
GEOM_OPT_DRIVER  OPTIMIZE
GEOM_OPT_MAX_CYCLES  200
$end

--------------------------------------------------------------

   15   -1044.5819668878      7.43e-10     00000 Convergence criterion met
   13   -1044.5835629849      4.55e-10     00000 Convergence criterion met
 Total energy in the final basis set =    -1044.5835629849
   15   -1044.5821358228      5.45e-10     00000 Convergence criterion met
   13   -1044.5836061397      3.98e-10     00000 Convergence criterion met
 Total energy in the final basis set =    -1044.5836061397
   14   -1044.5822991378      8.74e-10     00000 Convergence criterion met
   12   -1044.5836265739      8.81e-10     00000 Convergence criterion met
 Total energy in the final basis set =    -1044.5836265739
   14   -1044.5823277542      8.28e-10     00000 Convergence criterion met
   12   -1044.5836278052      8.59e-10     00000 Convergence criterion met
 Total energy in the final basis set =    -1044.5836278052
   14   -1044.5823374942      8.23e-10     00000 Convergence criterion met
   12   -1044.5836284961      8.54e-10     00000 Convergence criterion met
 Total energy in the final basis set =    -1044.5836284961
 **  OPTIMIZATION CONVERGED  **
 Total job time:  1769.79s(wall), 22619.46s(cpu)
        *  Thank you very much for using Q-Chem.  Have a nice day.  *
 Q-Chem 6.1, Q-Chem, Inc., Pleasanton, CA (2023)
 Q-Chem 6.1.1 for Intel X86 EM64T Linux

User input:
--------------------------------------------------------------

$molecule
read
$end

$rem
JOBTYPE  FREQ
GEN_SCFMAN  TRUE
VFB_CTA  FORWARD
METHOD  WB97X-V
BASIS  DEF2-SVPD
UNRESTRICTED  FALSE
MAX_SCF_CYCLES  2000
THRESH  14
SCF_CONVERGENCE  9
MEM_TOTAL  8000
MEM_STATIC  2000
SCF_GUESS  FRAGMO
SYMMETRY  FALSE
SYM_IGNORE  FALSE
SCF_ALGORITHM  DIIS
BASIS_LIN_DEP_THRESH  6
IDERIV  1
SCFMI_MODE  0
XC_GRID  000075000302
NL_GRID  1
FD_MAT_VEC_PROD  FALSE
GEOM_OPT_TOL_GRADIENT  50
GEOM_OPT_TOL_DISPLACEMENT  50
GEOM_OPT_TOL_ENERGY  10
GEOM_OPT_DRIVER  OPTIMIZE
GEOM_OPT_MAX_CYCLES  200
$end
--------------------------------------------------------------

   14   -1044.5823502414      8.75e-10     00000 Convergence criterion met
   12   -1044.5836303700      8.74e-10     00000 Convergence criterion met
 Total energy in the final basis set =    -1044.5836303700
   14   -1044.5823503986      8.75e-10     00000 Convergence criterion met
   12   -1044.5836300015      8.54e-10     00000 Convergence criterion met
 Total energy in the final basis set =    -1044.5836300015
   14   -1044.5823498995      8.75e-10     00000 Convergence criterion met
   12   -1044.5836299907      8.86e-10     00000 Convergence criterion met
 Total energy in the final basis set =    -1044.5836299907
   14   -1044.5823501102      8.75e-10     00000 Convergence criterion met
   12   -1044.5836301990      8.80e-10     00000 Convergence criterion met
 Total energy in the final basis set =    -1044.5836301990
   14   -1044.5823506290      8.75e-10     00000 Convergence criterion met
   12   -1044.5836302344      8.59e-10     00000 Convergence criterion met
 Total energy in the final basis set =    -1044.5836302344

                    Orbital Energies (a.u.)
 --------------------------------------------------------------

 Alpha MOs
 -- Occupied --
-66.1307 -24.8357 -24.8356 -24.8354 -10.5869 -10.2721 -10.2712 -10.2711
 -6.9756  -5.3855  -5.0116  -4.9934  -4.9934  -3.7398  -3.7388  -3.7388
 -2.0643  -2.0586  -2.0585  -2.0434  -2.0434  -1.4655  -1.3694  -1.3692
 -0.8953  -0.8469  -0.8196  -0.8065  -0.8060  -0.7415  -0.7414  -0.6934
 -0.6140  -0.6139  -0.6023  -0.5760  -0.5759  -0.5513  -0.5361  -0.5230
 -0.5228  -0.5034  -0.5028  -0.4918  -0.4755  -0.4158  -0.4120  -0.4116
 -0.3877  -0.3874

          Ground-State Mulliken Net Atomic Charges

     Atom                 Charge (a.u.)
  ----------------------------------------
      1 C                     0.167769
      2 Si                   -0.636449
      3 C                     0.268925
      4 C                     0.167767
      5 H                     0.320799
      6 H                    -0.025785
      7 H                    -0.020500
      8 H                    -0.069981
      9 H                    -0.017877
     10 H                    -0.017877
     11 H                    -0.003235
     12 H                    -0.069982
     13 H                    -0.020510
     14 H                    -0.025782
     15 I                     0.224205
     16 C                     0.839941
     17 F                    -0.360011
     18 F                    -0.361955
     19 F                    -0.359463
  ----------------------------------------
  Sum of atomic charges =     0.000000

                    Cartesian Multipole Moments
 -----------------------------------------------------------------
    Charge (ESU x 10^10)
                 0.0000
    Dipole Moment (Debye)
         X       2.0928      Y      -0.0015      Z       0.1715
       Tot       2.0999
    Quadrupole Moments (Debye-Ang)
        XX     -81.4424     XY       0.0044     YY     -84.0646
        XZ       0.9573     YZ      -0.0020     ZZ     -84.2029

             Standard Nuclear Orientation (Angstroms)
    I     Atom           X                Y                Z
 ----------------------------------------------------------------
    1      C       2.9748368653    -1.5489677460     1.0109899425
    2      Si      3.2013538033    -0.0000279007    -0.0364954470
    3      C       4.8871947513     0.0001955423    -0.8755726655
    4      C       2.9748762324     1.5483100008     1.0118891069
    5      H       2.1488784309     0.0002955657    -1.1149062721
    6      H       3.0663466995    -2.4626327707     0.4019113620
    7      H       3.7378620836    -1.5975671845     1.8053971921
    8      H       1.9859023829    -1.5661810682     1.4964494135
    9      H       5.0172871622    -0.8897831239    -1.5117182253
   10      H       5.0173153897     0.8905460829    -1.5111918754
   11      H       5.6966326891    -0.0000385138    -0.1269903307
   12      H       1.9859596505     1.5652472028     1.4973949679
   13      H       3.7379297438     1.5964507358     1.8062969820
   14      H       3.0663665140     2.4623254585     0.4033333907
   15      I      -0.7556912370     0.0002078827    -0.3716031956
   16      C      -2.8174506839    -0.0001338763     0.2044638644
   17      F      -3.1047064273     1.0794988376     0.9321711530
   18      F      -3.6069150431    -0.0000605654    -0.8696271347
   19      F      -3.1044386873    -1.0800730589     0.9318234848
 ----------------------------------------------------------------

 Frequency:        13.12                  21.69                  24.60
 Force Cnst:      0.0007                 0.0014                 0.0031
 Red. Mass:       6.4821                 5.1469                 8.7810
 IR Intens:        0.009                  0.002                  0.132
 Frequency:        40.47                  44.24                  64.84
 Force Cnst:      0.0037                 0.0076                 0.0082
 Red. Mass:       3.8288                 6.6336                 3.3197
 IR Intens:        0.111                  0.100                  1.473
 Frequency:       130.09                 159.41                 165.34
 Force Cnst:      0.0101                 0.0155                 0.0169
 Red. Mass:       1.0153                 1.0378                 1.0512
 IR Intens:        0.003                  0.004                  0.003
 Frequency:       201.18                 202.62                 236.72
 Force Cnst:      0.0532                 0.0544                 0.0771
 Red. Mass:       2.2301                 2.2483                 2.3349
 IR Intens:        0.786                  0.527                  1.640
 Frequency:       272.61                 272.91                 299.29
 Force Cnst:      0.8364                 0.8382                 1.3518
 Red. Mass:      19.1018                19.0997                25.6140
 IR Intens:        0.005                  0.058                  2.692
 Frequency:       539.03                 539.22                 605.54
 Force Cnst:      3.0940                 3.0903                 0.2309
 Red. Mass:      18.0738                18.0392                 1.0686
 IR Intens:        0.833                  1.011                  7.200
 Frequency:       622.34                 628.53                 667.23
 Force Cnst:      0.2863                 0.5444                 0.3065
 Red. Mass:       1.2545                 2.3388                 1.1685
 IR Intens:       18.030                  2.243                  0.010
 Frequency:       718.74                 720.48                 756.61
 Force Cnst:      0.8436                 0.8439                 5.7886
 Red. Mass:       2.7715                 2.7592                17.1625
 IR Intens:        7.057                  5.965                 36.469
 Frequency:       840.58                 842.56                 859.91
 Force Cnst:      0.5882                 0.6154                 0.6876
 Red. Mass:       1.4128                 1.4713                 1.5782
 IR Intens:       15.414                 21.158                107.478
 Frequency:       912.59                 933.46                1110.46
 Force Cnst:      0.6542                 0.6452                 9.5290
 Red. Mass:       1.3333                 1.2568                13.1157
 IR Intens:      136.637                232.806                629.047
 Frequency:      1199.83                1200.74                1272.91
 Force Cnst:     11.2680                11.2860                 1.2260
 Red. Mass:      13.2850                13.2858                 1.2842
 IR Intens:      235.022                237.070                 42.056
 Frequency:      1273.24                1281.12                1424.71
 Force Cnst:      1.2251                 1.2066                 1.2581
 Red. Mass:       1.2826                 1.2477                 1.0520
 IR Intens:       46.141                 10.840                  0.110
 Frequency:      1427.37                1428.41                1436.47
 Force Cnst:      1.2599                 1.2617                 1.2718
 Red. Mass:       1.0495                 1.0496                 1.0461
 IR Intens:        0.179                  0.252                  2.396
 Frequency:      1436.57                1444.63                2167.74
 Force Cnst:      1.2719                 1.2837                 2.8755
 Red. Mass:       1.0460                 1.0440                 1.0386
 IR Intens:        3.746                  9.994                311.086
 Frequency:      3047.12                3047.36                3048.17
 Force Cnst:      5.6733                 5.6749                 5.6764
 Red. Mass:       1.0371                 1.0372                 1.0369
 IR Intens:        2.351                  3.899                  4.425
 Frequency:      3138.28                3138.94                3141.13
 Force Cnst:      6.3921                 6.3939                 6.4025
 Red. Mass:       1.1016                 1.1014                 1.1014
 IR Intens:        0.654                 10.077                 16.160
 Frequency:      3144.26                3144.70                3146.48
 Force Cnst:      6.4179                 6.4187                 6.4276
 Red. Mass:       1.1018                 1.1016                 1.1019
 IR Intens:        3.085                 12.948                  9.566

 STANDARD THERMODYNAMIC QUANTITIES AT   298.15 K  AND     1.00 ATM

   This Molecule has  0 Imaginary Frequencies
   Zero point vibrational energy:       83.539 kcal/mol

   Atom    1 Element C  Has Mass   12.00000
   Atom    2 Element Si Has Mass   27.97693
   Atom    3 Element C  Has Mass   12.00000
   Atom    4 Element C  Has Mass   12.00000
   Atom    5 Element H  Has Mass    1.00783
   Atom    6 Element H  Has Mass    1.00783
   Atom    7 Element H  Has Mass    1.00783
   Atom    8 Element H  Has Mass    1.00783
   Atom    9 Element H  Has Mass    1.00783
   Atom   10 Element H  Has Mass    1.00783
   Atom   11 Element H  Has Mass    1.00783
   Atom   12 Element H  Has Mass    1.00783
   Atom   13 Element H  Has Mass    1.00783
   Atom   14 Element H  Has Mass    1.00783
   Atom   15 Element I  Has Mass  126.90440
   Atom   16 Element C  Has Mass   12.00000
   Atom   17 Element F  Has Mass   18.99840
   Atom   18 Element F  Has Mass   18.99840
   Atom   19 Element F  Has Mass   18.99840
   Molecular Mass:   269.954830 amu
   Principal axes and moments of inertia in amu*Bohr^2:
                             1           2           3
    Eigenvalues --      863.74428  6472.26660  6506.73498
          X               1.00000     0.00000     0.00165
          Y               0.00000    -1.00000     0.00035
          Z              -0.00165     0.00035     1.00000
   Rotational Symmetry Number is   1
   The Molecule is an Asymmetric Top
   Translational Enthalpy:        0.889 kcal/mol
   Rotational Enthalpy:           0.889 kcal/mol
   Vibrational Enthalpy:         90.933 kcal/mol
   gas constant (RT):             0.592 kcal/mol
   Translational Entropy:        42.678  cal/mol.K
   Rotational Entropy:           31.965  cal/mol.K
   Vibrational Entropy:          58.044  cal/mol.K

   Total Enthalpy:               93.303 kcal/mol
   Total Entropy:               132.687  cal/mol.K

 Total job time:  16138.67s(wall), 209671.02s(cpu)
        *  Thank you very much for using Q-Chem.  Have a nice day.  *
