 Q-Chem 6.1, Q-Chem, Inc., Pleasanton, CA (2023)
 Q-Chem 6.1.1 for Intel X86 EM64T Linux

User input:
--------------------------------------------------------------
$molecule
0 1
--
0 1
H    1.1494978093   0.0010746281   1.1885438814
Si   2.1797527184   0.0003866633   0.0884069113
C    3.8831281360   0.0017470612   0.8888589291
C    1.9261518830  -1.5489682632  -0.9523382356
C    1.9250789847   1.5475702264  -0.9553016271
H    4.0278080909   0.8925612005   1.5206066924
H    4.6748977285   0.0013165088   0.1216648839
H    4.0284499554  -0.8877789475   1.5222717202
H    2.0234915703  -2.4625023270  -0.3440378364
H    0.9290786907  -1.5614183875  -1.4211640326
H    2.6743094963  -1.6030064874  -1.7602892535
H    0.9280538528   1.5583617951  -1.4242718642
H    2.0216387339   2.4623328972  -0.3487258617
H    2.6732945480   1.6006478629  -1.7632623732
--
0 1
Br  -1.5398321693  -0.0002999281   0.3810664448
C   -3.2213463951  -0.0011389440  -0.2470382510
N   -4.3050953166  -0.0017313559  -0.6525843189
$end

$rem
JOBTYPE  OPT
GEN_SCFMAN  TRUE
VFB_CTA  BACKWARD
METHOD  WB97X-V
BASIS  DEF2-SVPD
UNRESTRICTED  FALSE
MAX_SCF_CYCLES  2000
THRESH  14
SCF_CONVERGENCE  9
MEM_TOTAL  8000
MEM_STATIC  2000
SCF_GUESS  FRAGMO
SYMMETRY  FALSE
SYM_IGNORE  FALSE
SCF_ALGORITHM  DIIS
BASIS_LIN_DEP_THRESH  6
IDERIV  1
SCFMI_MODE  0
XC_GRID  000075000302
NL_GRID  1
FD_MAT_VEC_PROD  FALSE
GEOM_OPT_TOL_GRADIENT  50
GEOM_OPT_TOL_DISPLACEMENT  50
GEOM_OPT_TOL_ENERGY  10
GEOM_OPT_DRIVER  OPTIMIZE
GEOM_OPT_MAX_CYCLES  200
$end

--------------------------------------------------------------

   15   -3075.9380194377      4.71e-10     00000 Convergence criterion met
   11   -3075.9390210698      7.74e-10     00000 Convergence criterion met
 Total energy in the final basis set =    -3075.9390210698
   14   -3075.9382815896      6.78e-10     00000 Convergence criterion met
   11   -3075.9392084098      5.91e-10     00000 Convergence criterion met
 Total energy in the final basis set =    -3075.9392084098
   14   -3075.9383945125      3.99e-10     00000 Convergence criterion met
   11   -3075.9392401969      4.42e-10     00000 Convergence criterion met
 Total energy in the final basis set =    -3075.9392401969
   13   -3075.9384733069      8.29e-10     00000 Convergence criterion met
   11   -3075.9392594968      3.44e-10     00000 Convergence criterion met
 Total energy in the final basis set =    -3075.9392594968
   14   -3075.9384888658      3.39e-10     00000 Convergence criterion met
   11   -3075.9393121081      4.03e-10     00000 Convergence criterion met
 Total energy in the final basis set =    -3075.9393121081
 **  OPTIMIZATION CONVERGED  **
 Total job time:  2041.60s(wall), 25228.77s(cpu)
        *  Thank you very much for using Q-Chem.  Have a nice day.  *
 Q-Chem 6.1, Q-Chem, Inc., Pleasanton, CA (2023)
 Q-Chem 6.1.1 for Intel X86 EM64T Linux

User input:
--------------------------------------------------------------

$molecule
read
$end

$rem
JOBTYPE  FREQ
GEN_SCFMAN  TRUE
VFB_CTA  BACKWARD
METHOD  WB97X-V
BASIS  DEF2-SVPD
UNRESTRICTED  FALSE
MAX_SCF_CYCLES  2000
THRESH  14
SCF_CONVERGENCE  9
MEM_TOTAL  8000
MEM_STATIC  2000
SCF_GUESS  FRAGMO
SYMMETRY  FALSE
SYM_IGNORE  FALSE
SCF_ALGORITHM  DIIS
BASIS_LIN_DEP_THRESH  6
IDERIV  1
SCFMI_MODE  0
XC_GRID  000075000302
NL_GRID  1
FD_MAT_VEC_PROD  FALSE
GEOM_OPT_TOL_GRADIENT  50
GEOM_OPT_TOL_DISPLACEMENT  50
GEOM_OPT_TOL_ENERGY  10
GEOM_OPT_DRIVER  OPTIMIZE
GEOM_OPT_MAX_CYCLES  200
$end
--------------------------------------------------------------

   14   -3075.9384905760      3.86e-10     00000 Convergence criterion met
   11   -3075.9393396182      4.34e-10     00000 Convergence criterion met
 Total energy in the final basis set =    -3075.9393396182
   14   -3075.9384924278      3.86e-10     00000 Convergence criterion met
   11   -3075.9393415716      4.34e-10     00000 Convergence criterion met
 Total energy in the final basis set =    -3075.9393415716
   14   -3075.9384924446      3.86e-10     00000 Convergence criterion met
   11   -3075.9393415883      4.34e-10     00000 Convergence criterion met
 Total energy in the final basis set =    -3075.9393415883
   14   -3075.9384921233      3.86e-10     00000 Convergence criterion met
   11   -3075.9393412209      4.34e-10     00000 Convergence criterion met
 Total energy in the final basis set =    -3075.9393412209
   14   -3075.9384920503      3.86e-10     00000 Convergence criterion met
   11   -3075.9393412401      4.35e-10     00000 Convergence criterion met
 Total energy in the final basis set =    -3075.9393412401

                    Orbital Energies (a.u.)
 --------------------------------------------------------------

 Alpha MOs
 -- Occupied --
 -482.66782   -66.13245   -62.57391   -56.39734   -56.39254   -56.39252
  -14.45069   -10.37656   -10.27451   -10.27449   -10.27443    -8.87039
   -6.70684    -6.68986    -6.68982    -5.38771    -3.74197    -3.74106
   -3.74102    -2.82800    -2.82307    -2.82306    -2.80988    -2.80985
   -1.06354    -0.99159    -0.84980    -0.80931    -0.80927    -0.65714
   -0.60386    -0.53875    -0.52933    -0.52649    -0.52457    -0.52193
   -0.50577    -0.50563    -0.49823    -0.49492    -0.42533    -0.42515
   -0.42119    -0.41496    -0.41460

          Ground-State Mulliken Net Atomic Charges

     Atom                 Charge (a.u.)
  ----------------------------------------
      1 H                     0.348593
      2 Si                   -0.432956
      3 C                     0.102159
      4 C                     0.096694
      5 C                     0.096682
      6 H                    -0.021059
      7 H                    -0.021578
      8 H                    -0.021061
      9 H                    -0.027103
     10 H                    -0.029613
     11 H                    -0.017395
     12 H                    -0.029617
     13 H                    -0.027102
     14 H                    -0.017389
     15 Br                   -0.125913
     16 C                     0.279509
     17 N                    -0.152853
  ----------------------------------------
  Sum of atomic charges =     0.000000

                    Cartesian Multipole Moments
 -----------------------------------------------------------------
    Charge (ESU x 10^10)
                 0.0000
    Dipole Moment (Debye)
         X      -3.7900      Y      -0.0000      Z       0.7071
       Tot       3.8554
    Quadrupole Moments (Debye-Ang)
        XX     -80.2537     XY      -0.0002     YY     -64.5277
        XZ       5.2235     YZ       0.0001     ZZ     -65.5131

             Standard Nuclear Orientation (Angstroms)
    I     Atom           X                Y                Z
 ----------------------------------------------------------------
    1      H      -1.3124154160     0.0000316417     1.2364951037
    2      Si     -2.2703988631     0.0000006445     0.0757421429
    3      C      -4.0234096853     0.0002261944     0.7623144064
    4      C      -1.9539018783     1.5482116194    -0.9502933726
    5      C      -1.9541881217    -1.5484704333    -0.9499915552
    6      H      -4.2099638454    -0.8897231228     1.3844577389
    7      H      -4.7643604580     0.0002223650    -0.0540646389
    8      H      -4.2097982403     0.8903209489     1.3842991229
    9      H      -2.0961727140     2.4623895233    -0.3517769369
   10      H      -0.9271437410     1.5646503269    -1.3502886701
   11      H      -2.6455312363     1.5981857924    -1.8074412719
   12      H      -0.9274454415    -1.5651640843    -1.3500136644
   13      H      -2.0965968914    -2.4625037587    -0.3512869630
   14      H      -2.6458504084    -1.5985011122    -1.8071096430
   15      Br      1.5891125401     0.0000212461     0.4382624462
   16      C       3.2406983461    -0.0000787277    -0.2580577981
   17      N       4.3066759441     0.0000009897    -0.7080965541
 ----------------------------------------------------------------

 Frequency:        21.65                  25.91                  40.05
 Force Cnst:      0.0022                 0.0018                 0.0042
 Red. Mass:       7.8475                 4.4432                 4.4602
 IR Intens:        2.539                  1.112                  1.417
 Frequency:        44.99                  60.63                 129.15
 Force Cnst:      0.0080                 0.0081                 0.0100
 Red. Mass:       6.7070                 3.7333                 1.0153
 IR Intens:        0.711                  0.209                  0.004
 Frequency:       158.19                 163.76                 200.46
 Force Cnst:      0.0153                 0.0165                 0.0530
 Red. Mass:       1.0405                 1.0451                 2.2373
 IR Intens:        0.003                  0.008                  0.738
 Frequency:       202.06                 233.77                 362.54
 Force Cnst:      0.0542                 0.0745                 0.9757
 Red. Mass:       2.2552                 2.3131                12.5991
 IR Intens:        0.780                  1.478                  2.679
 Frequency:       362.94                 605.31                 612.82
 Force Cnst:      0.9790                 0.2314                 3.0536
 Red. Mass:      12.6143                 1.0718                13.8007
 IR Intens:        3.443                  7.126                  0.060
 Frequency:       617.89                 627.40                 665.15
 Force Cnst:      0.2535                 0.6996                 0.3046
 Red. Mass:       1.1271                 3.0168                 1.1686
 IR Intens:        9.270                  1.224                  0.002
 Frequency:       717.86                 720.18                 839.79
 Force Cnst:      0.8403                 0.8403                 0.5960
 Red. Mass:       2.7675                 2.7498                 1.4343
 IR Intens:        7.309                  7.666                 19.079
 Frequency:       841.25                 858.69                 916.82
 Force Cnst:      0.6106                 0.6881                 0.6500
 Red. Mass:       1.4644                 1.5839                 1.3125
 IR Intens:       24.749                 81.132                141.897
 Frequency:       928.95                1272.05                1272.55
 Force Cnst:      0.6466                 1.2230                 1.2254
 Red. Mass:       1.2717                 1.2828                 1.2843
 IR Intens:      184.644                 44.119                 38.916
 Frequency:      1279.33                1424.83                1426.92
 Force Cnst:      1.2034                 1.2582                 1.2593
 Red. Mass:       1.2479                 1.0519                 1.0498
 IR Intens:       11.376                  0.084                  0.024
 Frequency:      1427.12                1436.82                1436.88
 Force Cnst:      1.2592                 1.2724                 1.2725
 Red. Mass:       1.0494                 1.0461                 1.0461
 IR Intens:        0.351                  2.700                  2.590
 Frequency:      1443.53                2182.37                2382.88
 Force Cnst:      1.2816                 2.9155                42.6519
 Red. Mass:       1.0439                 1.0390                12.7492
 IR Intens:        9.756                216.765                 29.286
 Frequency:      3047.30                3047.54                3048.62
 Force Cnst:      5.6740                 5.6755                 5.6789
 Red. Mass:       1.0371                 1.0372                 1.0371
 IR Intens:        2.281                  4.144                  4.088
 Frequency:      3138.71                3139.42                3141.11
 Force Cnst:      6.3941                 6.3961                 6.4016
 Red. Mass:       1.1016                 1.1015                 1.1012
 IR Intens:        0.445                  8.815                 17.420
 Frequency:      3143.51                3143.94                3145.87
 Force Cnst:      6.4144                 6.4154                 6.4241
 Red. Mass:       1.1017                 1.1016                 1.1017
 IR Intens:        3.015                 14.113                  9.958

 STANDARD THERMODYNAMIC QUANTITIES AT   298.15 K  AND     1.00 ATM

   This Molecule has  0 Imaginary Frequencies
   Zero point vibrational energy:       79.970 kcal/mol

   Atom    1 Element H  Has Mass    1.00783
   Atom    2 Element Si Has Mass   27.97693
   Atom    3 Element C  Has Mass   12.00000
   Atom    4 Element C  Has Mass   12.00000
   Atom    5 Element C  Has Mass   12.00000
   Atom    6 Element H  Has Mass    1.00783
   Atom    7 Element H  Has Mass    1.00783
   Atom    8 Element H  Has Mass    1.00783
   Atom    9 Element H  Has Mass    1.00783
   Atom   10 Element H  Has Mass    1.00783
   Atom   11 Element H  Has Mass    1.00783
   Atom   12 Element H  Has Mass    1.00783
   Atom   13 Element H  Has Mass    1.00783
   Atom   14 Element H  Has Mass    1.00783
   Atom   15 Element Br Has Mass   78.91830
   Atom   16 Element C  Has Mass   12.00000
   Atom   17 Element N  Has Mass   14.00307
   Molecular Mass:   178.976600 amu
   Principal axes and moments of inertia in amu*Bohr^2:
                             1           2           3
    Eigenvalues --      531.54445  4137.87060  4187.98973
          X              -0.99999     0.00000     0.00405
          Y              -0.00000    -1.00000     0.00002
          Z              -0.00405    -0.00002    -0.99999
   Rotational Symmetry Number is   1
   The Molecule is an Asymmetric Top
   Translational Enthalpy:        0.889 kcal/mol
   Rotational Enthalpy:           0.889 kcal/mol
   Vibrational Enthalpy:         86.160 kcal/mol
   gas constant (RT):             0.592 kcal/mol
   Translational Entropy:        41.453  cal/mol.K
   Rotational Entropy:           30.600  cal/mol.K
   Vibrational Entropy:          47.237  cal/mol.K

   Total Enthalpy:               88.530 kcal/mol
   Total Entropy:               119.290  cal/mol.K

 Total job time:  10551.72s(wall), 130921.11s(cpu)
        *  Thank you very much for using Q-Chem.  Have a nice day.  *
