 Q-Chem 6.1, Q-Chem, Inc., Pleasanton, CA (2023)
 Q-Chem 6.1.1 for Intel X86 EM64T Linux

User input:
--------------------------------------------------------------
$molecule
0 1
--
0 1
H    1.1494978093   0.0010746281   1.1885438814
Si   2.1797527184   0.0003866633   0.0884069113
C    3.8831281360   0.0017470612   0.8888589291
C    1.9261518830  -1.5489682632  -0.9523382356
C    1.9250789847   1.5475702264  -0.9553016271
H    4.0278080909   0.8925612005   1.5206066924
H    4.6748977285   0.0013165088   0.1216648839
H    4.0284499554  -0.8877789475   1.5222717202
H    2.0234915703  -2.4625023270  -0.3440378364
H    0.9290786907  -1.5614183875  -1.4211640326
H    2.6743094963  -1.6030064874  -1.7602892535
H    0.9280538528   1.5583617951  -1.4242718642
H    2.0216387339   2.4623328972  -0.3487258617
H    2.6732945480   1.6006478629  -1.7632623732
--
0 1
Br  -1.5398321693  -0.0002999281   0.3810664448
C   -3.2213463951  -0.0011389440  -0.2470382510
N   -4.3050953166  -0.0017313559  -0.6525843189
$end

$rem
JOBTYPE  OPT
GEN_SCFMAN  TRUE
VFB_CTA  FORWARD
METHOD  WB97X-V
BASIS  DEF2-SVPD
UNRESTRICTED  FALSE
MAX_SCF_CYCLES  2000
THRESH  14
SCF_CONVERGENCE  9
MEM_TOTAL  8000
MEM_STATIC  2000
SCF_GUESS  FRAGMO
SYMMETRY  FALSE
SYM_IGNORE  FALSE
SCF_ALGORITHM  DIIS
BASIS_LIN_DEP_THRESH  6
IDERIV  1
SCFMI_MODE  0
XC_GRID  000075000302
NL_GRID  1
FD_MAT_VEC_PROD  FALSE
GEOM_OPT_TOL_GRADIENT  50
GEOM_OPT_TOL_DISPLACEMENT  50
GEOM_OPT_TOL_ENERGY  10
GEOM_OPT_DRIVER  OPTIMIZE
GEOM_OPT_MAX_CYCLES  200
$end

--------------------------------------------------------------

   15   -3075.9380194376      4.71e-10     00000 Convergence criterion met
   12   -3075.9394657966      8.61e-10     00000 Convergence criterion met
 Total energy in the final basis set =    -3075.9394657966
   14   -3075.9381232159      8.84e-10     00000 Convergence criterion met
   12   -3075.9394906820      7.95e-10     00000 Convergence criterion met
 Total energy in the final basis set =    -3075.9394906820
   14   -3075.9382536754      6.13e-10     00000 Convergence criterion met
   12   -3075.9394784426      6.82e-10     00000 Convergence criterion met
 Total energy in the final basis set =    -3075.9394784426
   14   -3075.9383006628      5.93e-10     00000 Convergence criterion met
   12   -3075.9395037821      6.70e-10     00000 Convergence criterion met
 Total energy in the final basis set =    -3075.9395037821
   14   -3075.9382589058      6.69e-10     00000 Convergence criterion met
   12   -3075.9395060745      7.03e-10     00000 Convergence criterion met
 Total energy in the final basis set =    -3075.9395060745
 **  OPTIMIZATION CONVERGED  **
 Total job time:  955.52s(wall), 11786.62s(cpu)
        *  Thank you very much for using Q-Chem.  Have a nice day.  *
 Q-Chem 6.1, Q-Chem, Inc., Pleasanton, CA (2023)
 Q-Chem 6.1.1 for Intel X86 EM64T Linux

User input:
--------------------------------------------------------------

$molecule
read
$end

$rem
JOBTYPE  FREQ
GEN_SCFMAN  TRUE
VFB_CTA  FORWARD
METHOD  WB97X-V
BASIS  DEF2-SVPD
UNRESTRICTED  FALSE
MAX_SCF_CYCLES  2000
THRESH  14
SCF_CONVERGENCE  9
MEM_TOTAL  8000
MEM_STATIC  2000
SCF_GUESS  FRAGMO
SYMMETRY  FALSE
SYM_IGNORE  FALSE
SCF_ALGORITHM  DIIS
BASIS_LIN_DEP_THRESH  6
IDERIV  1
SCFMI_MODE  0
XC_GRID  000075000302
NL_GRID  1
FD_MAT_VEC_PROD  FALSE
GEOM_OPT_TOL_GRADIENT  50
GEOM_OPT_TOL_DISPLACEMENT  50
GEOM_OPT_TOL_ENERGY  10
GEOM_OPT_DRIVER  OPTIMIZE
GEOM_OPT_MAX_CYCLES  200
$end
--------------------------------------------------------------

   14   -3075.9382685465      6.56e-10     00000 Convergence criterion met
   12   -3075.9395053814      6.95e-10     00000 Convergence criterion met
 Total energy in the final basis set =    -3075.9395053814
   14   -3075.9382704161      6.57e-10     00000 Convergence criterion met
   12   -3075.9395074378      6.96e-10     00000 Convergence criterion met
 Total energy in the final basis set =    -3075.9395074378
   14   -3075.9382704185      6.57e-10     00000 Convergence criterion met
   12   -3075.9395074403      6.96e-10     00000 Convergence criterion met
 Total energy in the final basis set =    -3075.9395074403
   14   -3075.9382702371      6.57e-10     00000 Convergence criterion met
   12   -3075.9395071748      6.96e-10     00000 Convergence criterion met
 Total energy in the final basis set =    -3075.9395071748
   14   -3075.9382700855      6.57e-10     00000 Convergence criterion met
   12   -3075.9395071914      6.96e-10     00000 Convergence criterion met
 Total energy in the final basis set =    -3075.9395071914

                    Orbital Energies (a.u.)
 --------------------------------------------------------------

 Alpha MOs
 -- Occupied --
 -482.66419   -66.13523   -62.57106   -56.39440   -56.38959   -56.38958
  -14.44858   -10.37396   -10.27596   -10.27577   -10.27575    -8.86804
   -6.70454    -6.68748    -6.68745    -5.39002    -3.74437    -3.74335
   -3.74331    -2.82571    -2.82074    -2.82070    -2.80750    -2.80749
   -1.06146    -0.98933    -0.85126    -0.81072    -0.81057    -0.65612
   -0.60485    -0.53989    -0.52925    -0.52717    -0.52322    -0.52121
   -0.50701    -0.50689    -0.49664    -0.49622    -0.42362    -0.42352
   -0.42279    -0.41657    -0.41602

          Ground-State Mulliken Net Atomic Charges

     Atom                 Charge (a.u.)
  ----------------------------------------
      1 H                     0.270369
      2 Si                   -0.514011
      3 C                     0.236563
      4 C                     0.164872
      5 C                     0.164869
      6 H                    -0.019143
      7 H                    -0.000970
      8 H                    -0.019146
      9 H                    -0.023591
     10 H                    -0.079160
     11 H                    -0.022028
     12 H                    -0.079153
     13 H                    -0.023591
     14 H                    -0.022026
     15 Br                   -0.129100
     16 C                     0.183281
     17 N                    -0.088037
  ----------------------------------------
  Sum of atomic charges =     0.000000

                    Cartesian Multipole Moments
 -----------------------------------------------------------------
    Charge (ESU x 10^10)
                 0.0000
    Dipole Moment (Debye)
         X      -4.0867      Y       0.0001      Z       0.5529
       Tot       4.1240
    Quadrupole Moments (Debye-Ang)
        XX     -80.6282     XY       0.0007     YY     -64.4540
        XZ       4.4791     YZ      -0.0001     ZZ     -65.2455

             Standard Nuclear Orientation (Angstroms)
    I     Atom           X                Y                Z
 ----------------------------------------------------------------
    1      H      -1.2017306007     0.0000776955     1.1697395624
    2      Si     -2.2306570291    -0.0000053087     0.0685550842
    3      C      -3.9351967847     0.0000717895     0.8669784206
    4      C      -1.9762953864     1.5483335572    -0.9737319801
    5      C      -1.9763167019    -1.5485165962    -0.9734812044
    6      H      -4.0808187737    -0.8900423662     1.4995015426
    7      H      -4.7262336243     0.0000182486     0.0990324381
    8      H      -4.0808036676     0.8902876082     1.4993619159
    9      H      -2.0813802567     2.4626119758    -0.3678232142
   10      H      -0.9766493128     1.5647624533    -1.4369102786
   11      H      -2.7197170523     1.5978653283    -1.7863511317
   12      H      -0.9766730661    -1.5650312061    -1.4366613285
   13      H      -2.0814077199    -2.4626951083    -0.3674227855
   14      H      -2.7197425105    -1.5981736482    -1.7860888919
   15      Br      1.5533702613     0.0000621719     0.3934571737
   16      C       3.2457883855    -0.0000556714    -0.2030735993
   17      N       4.3369312534    -0.0001115928    -0.5881857008
 ----------------------------------------------------------------

 Frequency:        25.19                  28.77                  45.00
 Force Cnst:      0.0017                 0.0036                 0.0053
 Red. Mass:       4.5193                 7.4323                 4.4745
 IR Intens:        1.097                  2.275                  1.399
 Frequency:        49.37                  68.89                 133.08
 Force Cnst:      0.0117                 0.0100                 0.0106
 Red. Mass:       8.1286                 3.5800                 1.0165
 IR Intens:        0.926                  0.601                  0.001
 Frequency:       161.49                 166.48                 201.17
 Force Cnst:      0.0159                 0.0172                 0.0533
 Red. Mass:       1.0347                 1.0509                 2.2365
 IR Intens:        0.001                  0.003                  0.775
 Frequency:       202.72                 236.70                 364.50
 Force Cnst:      0.0546                 0.0768                 0.9869
 Red. Mass:       2.2556                 2.3260                12.6071
 IR Intens:        0.621                  1.537                  3.652
 Frequency:       365.73                 605.26                 608.58
 Force Cnst:      0.9927                 0.2308                 2.5240
 Red. Mass:      12.5961                 1.0693                11.5664
 IR Intens:        3.013                  7.292                  0.856
 Frequency:       624.20                 628.75                 667.52
 Force Cnst:      0.3192                 0.4865                 0.3067
 Red. Mass:       1.3906                 2.0889                 1.1684
 IR Intens:       10.643                  2.768                  0.011
 Frequency:       718.59                 721.38                 840.66
 Force Cnst:      0.8441                 0.8436                 0.5896
 Red. Mass:       2.7746                 2.7514                 1.4159
 IR Intens:        7.362                  6.589                 16.443
 Frequency:       843.02                 860.06                 914.31
 Force Cnst:      0.6184                 0.6877                 0.6543
 Red. Mass:       1.4768                 1.5779                 1.3285
 IR Intens:       24.460                 88.601                142.949
 Frequency:       936.03                1273.97                1274.12
 Force Cnst:      0.6460                 1.2276                 1.2259
 Red. Mass:       1.2514                 1.2838                 1.2817
 IR Intens:      194.477                 39.573                 43.681
 Frequency:      1281.95                1425.19                1427.62
 Force Cnst:      1.2073                 1.2588                 1.2605
 Red. Mass:       1.2469                 1.0519                 1.0497
 IR Intens:       10.419                  0.120                  0.049
 Frequency:      1428.40                1436.67                1437.38
 Force Cnst:      1.2616                 1.2721                 1.2733
 Red. Mass:       1.0495                 1.0461                 1.0460
 IR Intens:        0.270                  2.651                  2.976
 Frequency:      1444.55                2168.35                2381.83
 Force Cnst:      1.2835                 2.8774                42.5807
 Red. Mass:       1.0440                 1.0387                12.7392
 IR Intens:       10.011                277.982                 27.129
 Frequency:      3047.64                3047.91                3048.79
 Force Cnst:      5.6755                 5.6771                 5.6789
 Red. Mass:       1.0371                 1.0372                 1.0370
 IR Intens:        2.104                  3.722                  4.021
 Frequency:      3138.75                3139.50                3141.79
 Force Cnst:      6.3939                 6.3956                 6.4054
 Red. Mass:       1.1015                 1.1013                 1.1014
 IR Intens:        0.514                 11.430                 14.213
 Frequency:      3144.16                3144.59                3147.04
 Force Cnst:      6.4172                 6.4182                 6.4299
 Red. Mass:       1.1018                 1.1016                 1.1019
 IR Intens:        3.456                 13.677                  9.025

 STANDARD THERMODYNAMIC QUANTITIES AT   298.15 K  AND     1.00 ATM

   This Molecule has  0 Imaginary Frequencies
   Zero point vibrational energy:       80.053 kcal/mol

   Atom    1 Element H  Has Mass    1.00783
   Atom    2 Element Si Has Mass   27.97693
   Atom    3 Element C  Has Mass   12.00000
   Atom    4 Element C  Has Mass   12.00000
   Atom    5 Element C  Has Mass   12.00000
   Atom    6 Element H  Has Mass    1.00783
   Atom    7 Element H  Has Mass    1.00783
   Atom    8 Element H  Has Mass    1.00783
   Atom    9 Element H  Has Mass    1.00783
   Atom   10 Element H  Has Mass    1.00783
   Atom   11 Element H  Has Mass    1.00783
   Atom   12 Element H  Has Mass    1.00783
   Atom   13 Element H  Has Mass    1.00783
   Atom   14 Element H  Has Mass    1.00783
   Atom   15 Element Br Has Mass   78.91830
   Atom   16 Element C  Has Mass   12.00000
   Atom   17 Element N  Has Mass   14.00307
   Molecular Mass:   178.976600 amu
   Principal axes and moments of inertia in amu*Bohr^2:
                             1           2           3
    Eigenvalues --      526.53787  4069.10258  4124.27587
          X              -0.99999     0.00000     0.00407
          Y              -0.00000    -1.00000     0.00004
          Z              -0.00407    -0.00004    -0.99999
   Rotational Symmetry Number is   1
   The Molecule is an Asymmetric Top
   Translational Enthalpy:        0.889 kcal/mol
   Rotational Enthalpy:           0.889 kcal/mol
   Vibrational Enthalpy:         86.190 kcal/mol
   gas constant (RT):             0.592 kcal/mol
   Translational Entropy:        41.453  cal/mol.K
   Rotational Entropy:           30.559  cal/mol.K
   Vibrational Entropy:          45.864  cal/mol.K

   Total Enthalpy:               88.560 kcal/mol
   Total Entropy:               117.876  cal/mol.K

 Total job time:  11012.57s(wall), 137918.32s(cpu)
        *  Thank you very much for using Q-Chem.  Have a nice day.  *
