 Q-Chem 6.1, Q-Chem, Inc., Pleasanton, CA (2023)
 Q-Chem 6.1.1 for Intel X86 EM64T Linux

User input:
--------------------------------------------------------------
$molecule
0 1
--
0 1
O   -1.5159833896  -0.1193890907   0.0000000000
H   -1.9250204525   0.7508887318   0.0000000000
H   -0.5596244397   0.0434521346   0.0000000000
--
0 1
O    1.3771370726   0.0974879313   0.0000000000
H    1.7557156045  -0.3445398535   0.7677278624
H    1.7557156045  -0.3445398535  -0.7677278624
$end

$rem
JOBTYPE  OPT
GEN_SCFMAN  TRUE
VFB_CTA  FORWARD
METHOD  WB97X-V
BASIS  DEF2-SVPD
UNRESTRICTED  FALSE
MAX_SCF_CYCLES  2000
THRESH  14
SCF_CONVERGENCE  9
MEM_TOTAL  8000
MEM_STATIC  2000
SCF_GUESS  FRAGMO
SYMMETRY  FALSE
SYM_IGNORE  FALSE
SCF_ALGORITHM  DIIS
BASIS_LIN_DEP_THRESH  6
IDERIV  1
SCFMI_MODE  0
XC_GRID  000075000302
NL_GRID  1
FD_MAT_VEC_PROD  FALSE
GEOM_OPT_TOL_GRADIENT  50
GEOM_OPT_TOL_DISPLACEMENT  50
GEOM_OPT_TOL_ENERGY  10
GEOM_OPT_DRIVER  OPTIMIZE
GEOM_OPT_MAX_CYCLES  200
$end

--------------------------------------------------------------

   13    -152.7041667942      6.31e-10     00000 Convergence criterion met
   10    -152.7044714814      6.68e-10     00000 Convergence criterion met
 Total energy in the final basis set =     -152.7044714814
   13    -152.7044511322      4.99e-10     00000 Convergence criterion met
   10    -152.7047388167      5.96e-10     00000 Convergence criterion met
 Total energy in the final basis set =     -152.7047388167
   13    -152.7047448002      2.99e-10     00000 Convergence criterion met
   10    -152.7050012848      4.74e-10     00000 Convergence criterion met
 Total energy in the final basis set =     -152.7050012848
   12    -152.7047847564      8.59e-10     00000 Convergence criterion met
   10    -152.7050309349      4.36e-10     00000 Convergence criterion met
 Total energy in the final basis set =     -152.7050309349
   12    -152.7047911271      7.65e-10     00000 Convergence criterion met
   10    -152.7050339287      4.22e-10     00000 Convergence criterion met
 Total energy in the final basis set =     -152.7050339287
 **  OPTIMIZATION CONVERGED  **
 Total job time:  227.72s(wall), 2285.28s(cpu)
        *  Thank you very much for using Q-Chem.  Have a nice day.  *
 Q-Chem 6.1, Q-Chem, Inc., Pleasanton, CA (2023)
 Q-Chem 6.1.1 for Intel X86 EM64T Linux

User input:
--------------------------------------------------------------

$molecule
read
$end

$rem
JOBTYPE  FREQ
GEN_SCFMAN  TRUE
VFB_CTA  FORWARD
METHOD  WB97X-V
BASIS  DEF2-SVPD
UNRESTRICTED  FALSE
MAX_SCF_CYCLES  2000
THRESH  14
SCF_CONVERGENCE  9
MEM_TOTAL  8000
MEM_STATIC  2000
SCF_GUESS  FRAGMO
SYMMETRY  FALSE
SYM_IGNORE  FALSE
SCF_ALGORITHM  DIIS
BASIS_LIN_DEP_THRESH  6
IDERIV  1
SCFMI_MODE  0
XC_GRID  000075000302
NL_GRID  1
FD_MAT_VEC_PROD  FALSE
GEOM_OPT_TOL_GRADIENT  50
GEOM_OPT_TOL_DISPLACEMENT  50
GEOM_OPT_TOL_ENERGY  10
GEOM_OPT_DRIVER  OPTIMIZE
GEOM_OPT_MAX_CYCLES  200
$end
--------------------------------------------------------------

   12    -152.7047897394      6.60e-10     00000 Convergence criterion met
   10    -152.7050464125      4.23e-10     00000 Convergence criterion met
 Total energy in the final basis set =     -152.7050464125
   12    -152.7047897519      6.60e-10     00000 Convergence criterion met
   10    -152.7050464677      4.23e-10     00000 Convergence criterion met
 Total energy in the final basis set =     -152.7050464677
   12    -152.7047896542      6.60e-10     00000 Convergence criterion met
   10    -152.7050464703      4.23e-10     00000 Convergence criterion met
 Total energy in the final basis set =     -152.7050464703
   12    -152.7047891682      6.60e-10     00000 Convergence criterion met
   10    -152.7050459516      4.23e-10     00000 Convergence criterion met
 Total energy in the final basis set =     -152.7050459516
   12    -152.7047892023      6.60e-10     00000 Convergence criterion met
   10    -152.7050459508      4.23e-10     00000 Convergence criterion met
 Total energy in the final basis set =     -152.7050459508

                    Orbital Energies (a.u.)
 --------------------------------------------------------------

 Alpha MOs
 -- Occupied --
-19.2572 -19.2120  -1.1532  -1.1077  -0.6706  -0.6279  -0.5303  -0.4807
 -0.4525  -0.4092

          Ground-State Mulliken Net Atomic Charges

     Atom                 Charge (a.u.)
  ----------------------------------------
      1 O                    -0.250778
      2 H                     0.142862
      3 H                     0.121735
      4 O                    -0.286815
      5 H                     0.136881
      6 H                     0.136115
  ----------------------------------------
  Sum of atomic charges =     0.000000

                    Cartesian Multipole Moments
 -----------------------------------------------------------------
    Charge (ESU x 10^10)
                 0.0000
    Dipole Moment (Debye)
         X       2.8543      Y      -0.3922      Z      -0.0014
       Tot       2.8811
    Quadrupole Moments (Debye-Ang)
        XX     -10.6370     XY       6.0524     YY     -13.3516
        XZ      -0.0028     YZ      -0.0005     ZZ     -12.2723

             Standard Nuclear Orientation (Angstroms)
    I     Atom           X                Y                Z
 ----------------------------------------------------------------
    1      O      -1.6052994942     0.1181274224    -0.0000000000
    2      H      -1.9659103403    -0.7735626602     0.0000000000
    3      H      -0.6472282588     0.0031522359    -0.0000000000
    4      O       1.4572101877    -0.0933557530     0.0000000000
    5      H       1.8989265257     0.2861185347    -0.7669412002
    6      H       1.8989265257     0.2861185347     0.7669412002
 ----------------------------------------------------------------

 Frequency:        97.80                 115.36                 123.61
 Force Cnst:      0.0060                 0.0089                 0.0094
 Red. Mass:       1.0616                 1.1340                 1.0443
 IR Intens:        1.012                216.850                150.756
 Frequency:       148.39                 265.65                 488.69
 Force Cnst:      0.0707                 0.0454                 0.1473
 Red. Mass:       5.4495                 1.0915                 1.0467
 IR Intens:       30.243                 90.435                136.556
 Frequency:      1594.80                1612.58                3863.69
 Force Cnst:      1.6236                 1.6541                 9.2046
 Red. Mass:       1.0834                 1.0796                 1.0465
 IR Intens:       85.847                 60.492                 97.340
 Frequency:      3872.44                3969.81                3974.87
 Force Cnst:      9.2326                10.0368                10.0786
 Red. Mass:       1.0450                 1.0810                 1.0827
 IR Intens:        9.475                144.900                 97.056

 STANDARD THERMODYNAMIC QUANTITIES AT   298.15 K  AND     1.00 ATM

   This Molecule has  0 Imaginary Frequencies
   Zero point vibrational energy:       28.774 kcal/mol

   Atom    1 Element O  Has Mass   15.99491
   Atom    2 Element H  Has Mass    1.00783
   Atom    3 Element H  Has Mass    1.00783
   Atom    4 Element O  Has Mass   15.99491
   Atom    5 Element H  Has Mass    1.00783
   Atom    6 Element H  Has Mass    1.00783
   Molecular Mass:    36.021140 amu
   Principal axes and moments of inertia in amu*Bohr^2:
                             1           2           3
    Eigenvalues --        7.99109   313.75420   314.23088
          X               0.99955     0.00000    -0.03006
          Y              -0.03006     0.00000    -0.99955
          Z               0.00000     1.00000     0.00000
   Rotational Symmetry Number is   1
   The Molecule is an Asymmetric Top
   Translational Enthalpy:        0.889 kcal/mol
   Rotational Enthalpy:           0.889 kcal/mol
   Vibrational Enthalpy:         30.961 kcal/mol
   gas constant (RT):             0.592 kcal/mol
   Translational Entropy:        36.674  cal/mol.K
   Rotational Entropy:           21.293  cal/mol.K
   Vibrational Entropy:          14.737  cal/mol.K

   Total Enthalpy:               33.331 kcal/mol
   Total Entropy:                72.705  cal/mol.K

 Total job time:  315.34s(wall), 3152.00s(cpu)
        *  Thank you very much for using Q-Chem.  Have a nice day.  *
