 Q-Chem 6.1, Q-Chem, Inc., Pleasanton, CA (2023)
 Q-Chem 6.1.1 for Intel X86 EM64T Linux

User input:
--------------------------------------------------------------
$molecule
0 1
--
0 1
O   -1.5159833896  -0.1193890907   0.0000000000
H   -1.9250204525   0.7508887318   0.0000000000
H   -0.5596244397   0.0434521346   0.0000000000
--
0 1
O    1.3771370726   0.0974879313   0.0000000000
H    1.7557156045  -0.3445398535   0.7677278624
H    1.7557156045  -0.3445398535  -0.7677278624
$end

$rem
JOBTYPE  OPT
GEN_SCFMAN  TRUE
VFB_CTA  BACKWARD
METHOD  WB97X-V
BASIS  DEF2-SVPD
UNRESTRICTED  FALSE
MAX_SCF_CYCLES  2000
THRESH  14
SCF_CONVERGENCE  9
MEM_TOTAL  8000
MEM_STATIC  2000
SCF_GUESS  FRAGMO
SYMMETRY  FALSE
SYM_IGNORE  FALSE
SCF_ALGORITHM  DIIS
BASIS_LIN_DEP_THRESH  6
IDERIV  1
SCFMI_MODE  0
XC_GRID  000075000302
NL_GRID  1
FD_MAT_VEC_PROD  FALSE
GEOM_OPT_TOL_GRADIENT  50
GEOM_OPT_TOL_DISPLACEMENT  50
GEOM_OPT_TOL_ENERGY  10
GEOM_OPT_DRIVER  OPTIMIZE
GEOM_OPT_MAX_CYCLES  200
$end

--------------------------------------------------------------

   13    -152.7041667942      6.31e-10     00000 Convergence criterion met
   11    -152.7071932926      9.31e-10     00000 Convergence criterion met
 Total energy in the final basis set =     -152.7071932926
   13    -152.7041882393      6.20e-10     00000 Convergence criterion met
   11    -152.7071949613      9.24e-10     00000 Convergence criterion met
 Total energy in the final basis set =     -152.7071949613
   13    -152.7042601119      5.86e-10     00000 Convergence criterion met
   11    -152.7071976915      8.99e-10     00000 Convergence criterion met
 Total energy in the final basis set =     -152.7071976915
   13    -152.7042726150      5.80e-10     00000 Convergence criterion met
   11    -152.7071979371      8.94e-10     00000 Convergence criterion met
 Total energy in the final basis set =     -152.7071979371
   13    -152.7042789198      5.76e-10     00000 Convergence criterion met
   11    -152.7071981657      8.92e-10     00000 Convergence criterion met
 Total energy in the final basis set =     -152.7071981657
 **  OPTIMIZATION CONVERGED  **
 Total job time:  113.03s(wall), 1163.25s(cpu)
        *  Thank you very much for using Q-Chem.  Have a nice day.  *
 Q-Chem 6.1, Q-Chem, Inc., Pleasanton, CA (2023)
 Q-Chem 6.1.1 for Intel X86 EM64T Linux

User input:
--------------------------------------------------------------

$molecule
read
$end

$rem
JOBTYPE  FREQ
GEN_SCFMAN  TRUE
VFB_CTA  BACKWARD
METHOD  WB97X-V
BASIS  DEF2-SVPD
UNRESTRICTED  FALSE
MAX_SCF_CYCLES  2000
THRESH  14
SCF_CONVERGENCE  9
MEM_TOTAL  8000
MEM_STATIC  2000
SCF_GUESS  FRAGMO
SYMMETRY  FALSE
SYM_IGNORE  FALSE
SCF_ALGORITHM  DIIS
BASIS_LIN_DEP_THRESH  6
IDERIV  1
SCFMI_MODE  0
XC_GRID  000075000302
NL_GRID  1
FD_MAT_VEC_PROD  FALSE
GEOM_OPT_TOL_GRADIENT  50
GEOM_OPT_TOL_DISPLACEMENT  50
GEOM_OPT_TOL_ENERGY  10
GEOM_OPT_DRIVER  OPTIMIZE
GEOM_OPT_MAX_CYCLES  200
$end
--------------------------------------------------------------

   13    -152.7042561836      5.81e-10     00000 Convergence criterion met
   11    -152.7071988019      8.98e-10     00000 Convergence criterion met
 Total energy in the final basis set =     -152.7071988019
   13    -152.7042563055      5.81e-10     00000 Convergence criterion met
   11    -152.7071987294      8.99e-10     00000 Convergence criterion met
 Total energy in the final basis set =     -152.7071987294
   13    -152.7042567238      5.81e-10     00000 Convergence criterion met
   11    -152.7071987329      8.98e-10     00000 Convergence criterion met
 Total energy in the final basis set =     -152.7071987329
   13    -152.7042564239      5.81e-10     00000 Convergence criterion met
   11    -152.7071982858      8.98e-10     00000 Convergence criterion met
 Total energy in the final basis set =     -152.7071982858
   13    -152.7042557089      5.81e-10     00000 Convergence criterion met
   11    -152.7071982793      8.99e-10     00000 Convergence criterion met
 Total energy in the final basis set =     -152.7071982793

                    Orbital Energies (a.u.)
 --------------------------------------------------------------

 Alpha MOs
 -- Occupied --
-19.2631 -19.2062  -1.1588  -1.1016  -0.6754  -0.6257  -0.5352  -0.4784
 -0.4546  -0.4048

          Ground-State Mulliken Net Atomic Charges

     Atom                 Charge (a.u.)
  ----------------------------------------
      1 O                    -0.290960
      2 H                     0.128712
      3 H                     0.135162
      4 O                    -0.298091
      5 H                     0.162976
      6 H                     0.162200
  ----------------------------------------
  Sum of atomic charges =     0.000000

                    Cartesian Multipole Moments
 -----------------------------------------------------------------
    Charge (ESU x 10^10)
                -0.0000
    Dipole Moment (Debye)
         X       2.7136      Y      -0.1857      Z      -0.0014
       Tot       2.7200
    Quadrupole Moments (Debye-Ang)
        XX     -11.3125     XY       6.2211     YY     -13.2044
        XZ      -0.0026     YZ      -0.0006     ZZ     -12.2366

             Standard Nuclear Orientation (Angstroms)
    I     Atom           X                Y                Z
 ----------------------------------------------------------------
    1      O      -1.5173667852     0.1212360920     0.0000000000
    2      H      -1.9275671948    -0.7484616214    -0.0000000000
    3      H      -0.5613785280    -0.0431280655    -0.0000000000
    4      O       1.3892963611    -0.1081699172    -0.0000000000
    5      H       1.7567545576     0.3435301442    -0.7675131084
    6      H       1.7567545576     0.3435301442     0.7675131084
 ----------------------------------------------------------------

 Frequency:       128.89                 141.07                 162.63
 Force Cnst:      0.0104                 0.0145                 0.0162
 Red. Mass:       1.0660                 1.2328                 1.0366
 IR Intens:      156.076                206.754                 15.196
 Frequency:       185.13                 344.89                 616.15
 Force Cnst:      0.0793                 0.0765                 0.2333
 Red. Mass:       3.9286                 1.0922                 1.0429
 IR Intens:       91.169                 59.040                109.117
 Frequency:      1592.27                1614.25                3765.01
 Force Cnst:      1.6187                 1.6530                 8.8104
 Red. Mass:       1.0837                 1.0767                 1.0549
 IR Intens:       97.074                 42.969                345.143
 Frequency:      3866.51                3952.04                3969.94
 Force Cnst:      9.2053                 9.8792                10.0540
 Red. Mass:       1.0451                 1.0736                 1.0827
 IR Intens:       16.375                106.975                100.808

 STANDARD THERMODYNAMIC QUANTITIES AT   298.15 K  AND     1.00 ATM

   This Molecule has  0 Imaginary Frequencies
   Zero point vibrational energy:       29.076 kcal/mol

   Atom    1 Element O  Has Mass   15.99491
   Atom    2 Element H  Has Mass    1.00783
   Atom    3 Element H  Has Mass    1.00783
   Atom    4 Element O  Has Mass   15.99491
   Atom    5 Element H  Has Mass    1.00783
   Atom    6 Element H  Has Mass    1.00783
   Molecular Mass:    36.021140 amu
   Principal axes and moments of inertia in amu*Bohr^2:
                             1           2           3
    Eigenvalues --        8.29328   282.75602   282.94315
          X              -0.99941     0.00000    -0.03446
          Y               0.03446    -0.00000    -0.99941
          Z               0.00000     1.00000    -0.00000
   Rotational Symmetry Number is   1
   The Molecule is an Asymmetric Top
   Translational Enthalpy:        0.889 kcal/mol
   Rotational Enthalpy:           0.889 kcal/mol
   Vibrational Enthalpy:         31.003 kcal/mol
   gas constant (RT):             0.592 kcal/mol
   Translational Entropy:        36.674  cal/mol.K
   Rotational Entropy:           21.122  cal/mol.K
   Vibrational Entropy:          12.174  cal/mol.K

   Total Enthalpy:               33.372 kcal/mol
   Total Entropy:                69.971  cal/mol.K

 Total job time:  338.31s(wall), 3488.22s(cpu)
        *  Thank you very much for using Q-Chem.  Have a nice day.  *
