 Q-Chem 6.2 (devel), Q-Chem, Inc., Pleasanton, CA (2024)
 Q-Chem 6.2.0 for Intel X86 EM64T Linux

User input:
--------------------------------------------------------------
$molecule
0 1
Si      0.0001887359     0.0003470093     0.3792872377
C       1.6089105553    -0.7747831455    -0.2261681341
C      -0.1335670331     1.7811480953    -0.2259729615
C      -1.4751140863    -1.0059887548    -0.2261190550
H      -0.0000730053     0.0001833530     1.8795843690
H       1.6465883081    -0.7926652860    -1.3280164316
H       1.7118689047    -1.8127188795     0.1290623992
H       2.4854917124    -0.2100096094     0.1298007917
H       0.7124399537     2.3904004142     0.1305541694
H      -1.0622887210     2.2557732021     0.1293871399
H      -0.1362961602     1.8230835411    -1.3277752674
H      -1.5101884129    -1.0301005447    -1.3279447130
H      -2.4254928100    -0.5769059247     0.1298384398
H      -1.4225627227    -2.0473462151     0.1300727985
$end

$rem
BASIS  =  def2-TZVPPD
GUI  =  2
JOB_TYPE  =  SP
METHOD  =  wB97XV
SCF_CONVERGENCE  =  8
POINT_GROUP_SYMMETRY  FALSE
ESP_GRID  -1
MAKE_CUBE_FILES  TRUE
PLOTS     TRUE
GUI       2
$end

$plots
grid_points  100 100 100
$end
--------------------------------------------------------------

             Standard Nuclear Orientation (Angstroms)
    I     Atom           X                Y                Z
 ----------------------------------------------------------------
    1      Si      0.0001887359     0.0003470093     0.3792872377
    2      C       1.6089105553    -0.7747831455    -0.2261681341
    3      C      -0.1335670331     1.7811480953    -0.2259729615
    4      C      -1.4751140863    -1.0059887548    -0.2261190550
    5      H      -0.0000730053     0.0001833530     1.8795843690
    6      H       1.6465883081    -0.7926652860    -1.3280164316
    7      H       1.7118689047    -1.8127188795     0.1290623992
    8      H       2.4854917124    -0.2100096094     0.1298007917
    9      H       0.7124399537     2.3904004142     0.1305541694
   10      H      -1.0622887210     2.2557732021     0.1293871399
   11      H      -0.1362961602     1.8230835411    -1.3277752674
   12      H      -1.5101884129    -1.0301005447    -1.3279447130
   13      H      -2.4254928100    -0.5769059247     0.1298384398
   14      H      -1.4225627227    -2.0473462151     0.1300727985
 ----------------------------------------------------------------

   10    -409.8266345121      8.33e-09  Convergence criterion met
 Total energy =  -409.82663451

                    Orbital Energies (a.u.)
 --------------------------------------------------------------

 Alpha MOs
 -- Occupied --
-66.1021 -10.2467 -10.2467 -10.2467  -5.3599  -3.7104  -3.7098  -3.7098
 -0.8434  -0.8048  -0.8048  -0.5915  -0.5270  -0.5149  -0.5148  -0.4954
 -0.4954  -0.4847  -0.4078  -0.4021  -0.4021

          Ground-State Mulliken Net Atomic Charges

     Atom                 Charge (a.u.)
  ----------------------------------------
      1 Si                    0.195631
      2 C                    -0.223818
      3 C                    -0.222740
      4 C                    -0.223287
      5 H                    -0.144715
      6 H                     0.081888
      7 H                     0.062161
      8 H                     0.062441
      9 H                     0.062339
     10 H                     0.061895
     11 H                     0.081685
     12 H                     0.082276
     13 H                     0.061942
     14 H                     0.062300
  ----------------------------------------
  Sum of atomic charges =     0.000000

                    Cartesian Multipole Moments
 -----------------------------------------------------------------
    Charge (ESU x 10^10)
                 0.0000
    Dipole Moment (Debye)
         X       0.0005      Y       0.0002      Z      -0.5608
       Tot       0.5608
    Quadrupole Moments (Debye-Ang)
        XX     -35.7753     XY      -0.0005     YY     -35.7756
        XZ       0.0006     YZ       0.0005     ZZ     -36.8639

 Total job time:  106.01s(wall), 1489.45s(cpu)
        *  Thank you very much for using Q-Chem.  Have a nice day.  *
